V -t * -v 1.0a5 -a 0
A -t * -n 1 -p 0 -o 0x7fffffff -c 30 -a 1
A -t * -h 1 -m 1073741823 -s 0
n -t * -a 0 -s 0 -S UP -v circle -c black -i black
n -t * -a 1 -s 1 -S UP -v circle -c black -i black
n -t * -a 2 -s 2 -S UP -v circle -c black -i black
n -t * -a 3 -s 3 -S UP -v circle -c black -i black
n -t * -a 4 -s 4 -S UP -v circle -c black -i black
n -t * -a 5 -s 5 -S UP -v circle -c black -i black
n -t * -a 6 -s 6 -S UP -v circle -c black -i black
n -t * -a 7 -s 7 -S UP -v circle -c black -i black
n -t * -a 8 -s 8 -S UP -v circle -c black -i black
n -t * -a 9 -s 9 -S UP -v circle -c black -i black
n -t * -a 10 -s 10 -S UP -v circle -c black -i black
n -t * -a 11 -s 11 -S UP -v circle -c black -i black
n -t * -a 12 -s 12 -S UP -v circle -c black -i black
n -t * -a 13 -s 13 -S UP -v circle -c black -i black
l -t * -s 0 -d 8 -S UP -r 20000000 -D 0.01 -c black
l -t * -s 1 -d 8 -S UP -r 20000000 -D 0.01 -c black
l -t * -s 2 -d 8 -S UP -r 20000000 -D 0.01 -c black
l -t * -s 3 -d 8 -S UP -r 20000000 -D 0.01 -c black
l -t * -s 4 -d 9 -S UP -r 20000000 -D 0.01 -c black
l -t * -s 5 -d 9 -S UP -r 20000000 -D 0.01 -c black
l -t * -s 6 -d 9 -S UP -r 20000000 -D 0.01 -c black
l -t * -s 7 -d 9 -S UP -r 20000000 -D 0.01 -c black
l -t * -s 8 -d 10 -S UP -r 20000000 -D 0.01 -c black
l -t * -s 9 -d 10 -S UP -r 20000000 -D 0.01 -c black
l -t * -s 10 -d 11 -S UP -r 20000000 -D 0.01 -c black
l -t * -s 10 -d 12 -S UP -r 20000000 -D 0.01 -c black
l -t * -s 11 -d 13 -S UP -r 20000000 -D 0.01 -c black
+ -t 0.1 -s 3 -d 8 -p tcp -e 40 -c 0 -i 0 -a 0 -x {3.0 2.1 0 ------- null}
- -t 0.1 -s 3 -d 8 -p tcp -e 40 -c 0 -i 0 -a 0 -x {3.0 2.1 0 ------- null}
h -t 0.1 -s 3 -d 8 -p tcp -e 40 -c 0 -i 0 -a 0 -x {3.0 2.1 -1 ------- null}
r -t 0.110016 -s 3 -d 8 -p tcp -e 40 -c 0 -i 0 -a 0 -x {3.0 2.1 0 ------- null}
+ -t 0.110016 -s 8 -d 2 -p tcp -e 40 -c 0 -i 0 -a 0 -x {3.0 2.1 0 ------- null}
- -t 0.110016 -s 8 -d 2 -p tcp -e 40 -c 0 -i 0 -a 0 -x {3.0 2.1 0 ------- null}
h -t 0.110016 -s 8 -d 2 -p tcp -e 40 -c 0 -i 0 -a 0 -x {3.0 2.1 -1 ------- null}
r -t 0.120032 -s 8 -d 2 -p tcp -e 40 -c 0 -i 0 -a 0 -x {3.0 2.1 0 ------- null}
+ -t 0.120032 -s 2 -d 8 -p ack -e 40 -c 0 -i 1 -a 0 -x {2.1 3.0 0 ------- null}
- -t 0.120032 -s 2 -d 8 -p ack -e 40 -c 0 -i 1 -a 0 -x {2.1 3.0 0 ------- null}
h -t 0.120032 -s 2 -d 8 -p ack -e 40 -c 0 -i 1 -a 0 -x {2.1 3.0 -1 ------- null}
r -t 0.130048 -s 2 -d 8 -p ack -e 40 -c 0 -i 1 -a 0 -x {2.1 3.0 0 ------- null}
+ -t 0.130048 -s 8 -d 3 -p ack -e 40 -c 0 -i 1 -a 0 -x {2.1 3.0 0 ------- null}
- -t 0.130048 -s 8 -d 3 -p ack -e 40 -c 0 -i 1 -a 0 -x {2.1 3.0 0 ------- null}
h -t 0.130048 -s 8 -d 3 -p ack -e 40 -c 0 -i 1 -a 0 -x {2.1 3.0 -1 ------- null}
r -t 0.140064 -s 8 -d 3 -p ack -e 40 -c 0 -i 1 -a 0 -x {2.1 3.0 0 ------- null}
+ -t 0.140064 -s 3 -d 8 -p tcp -e 1040 -c 0 -i 2 -a 0 -x {3.0 2.1 1 ------- null}
- -t 0.140064 -s 3 -d 8 -p tcp -e 1040 -c 0 -i 2 -a 0 -x {3.0 2.1 1 ------- null}
h -t 0.140064 -s 3 -d 8 -p tcp -e 1040 -c 0 -i 2 -a 0 -x {3.0 2.1 -1 ------- null}
+ -t 0.140064 -s 3 -d 8 -p tcp -e 1040 -c 0 -i 3 -a 0 -x {3.0 2.1 2 ------- null}
- -t 0.14048 -s 3 -d 8 -p tcp -e 1040 -c 0 -i 3 -a 0 -x {3.0 2.1 2 ------- null}
h -t 0.14048 -s 3 -d 8 -p tcp -e 1040 -c 0 -i 3 -a 0 -x {3.0 2.1 -1 ------- null}
r -t 0.15048 -s 3 -d 8 -p tcp -e 1040 -c 0 -i 2 -a 0 -x {3.0 2.1 1 ------- null}
+ -t 0.15048 -s 8 -d 2 -p tcp -e 1040 -c 0 -i 2 -a 0 -x {3.0 2.1 1 ------- null}
- -t 0.15048 -s 8 -d 2 -p tcp -e 1040 -c 0 -i 2 -a 0 -x {3.0 2.1 1 ------- null}
h -t 0.15048 -s 8 -d 2 -p tcp -e 1040 -c 0 -i 2 -a 0 -x {3.0 2.1 -1 ------- null}
r -t 0.150896 -s 3 -d 8 -p tcp -e 1040 -c 0 -i 3 -a 0 -x {3.0 2.1 2 ------- null}
+ -t 0.150896 -s 8 -d 2 -p tcp -e 1040 -c 0 -i 3 -a 0 -x {3.0 2.1 2 ------- null}
- -t 0.150896 -s 8 -d 2 -p tcp -e 1040 -c 0 -i 3 -a 0 -x {3.0 2.1 2 ------- null}
h -t 0.150896 -s 8 -d 2 -p tcp -e 1040 -c 0 -i 3 -a 0 -x {3.0 2.1 -1 ------- null}
r -t 0.160896 -s 8 -d 2 -p tcp -e 1040 -c 0 -i 2 -a 0 -x {3.0 2.1 1 ------- null}
+ -t 0.160896 -s 2 -d 8 -p ack -e 40 -c 0 -i 4 -a 0 -x {2.1 3.0 1 ------- null}
- -t 0.160896 -s 2 -d 8 -p ack -e 40 -c 0 -i 4 -a 0 -x {2.1 3.0 1 ------- null}
h -t 0.160896 -s 2 -d 8 -p ack -e 40 -c 0 -i 4 -a 0 -x {2.1 3.0 -1 ------- null}
r -t 0.161312 -s 8 -d 2 -p tcp -e 1040 -c 0 -i 3 -a 0 -x {3.0 2.1 2 ------- null}
+ -t 0.161312 -s 2 -d 8 -p ack -e 40 -c 0 -i 5 -a 0 -x {2.1 3.0 2 ------- null}
- -t 0.161312 -s 2 -d 8 -p ack -e 40 -c 0 -i 5 -a 0 -x {2.1 3.0 2 ------- null}
h -t 0.161312 -s 2 -d 8 -p ack -e 40 -c 0 -i 5 -a 0 -x {2.1 3.0 -1 ------- null}
r -t 0.170912 -s 2 -d 8 -p ack -e 40 -c 0 -i 4 -a 0 -x {2.1 3.0 1 ------- null}
+ -t 0.170912 -s 8 -d 3 -p ack -e 40 -c 0 -i 4 -a 0 -x {2.1 3.0 1 ------- null}
- -t 0.170912 -s 8 -d 3 -p ack -e 40 -c 0 -i 4 -a 0 -x {2.1 3.0 1 ------- null}
h -t 0.170912 -s 8 -d 3 -p ack -e 40 -c 0 -i 4 -a 0 -x {2.1 3.0 -1 ------- null}
r -t 0.171328 -s 2 -d 8 -p ack -e 40 -c 0 -i 5 -a 0 -x {2.1 3.0 2 ------- null}
+ -t 0.171328 -s 8 -d 3 -p ack -e 40 -c 0 -i 5 -a 0 -x {2.1 3.0 2 ------- null}
- -t 0.171328 -s 8 -d 3 -p ack -e 40 -c 0 -i 5 -a 0 -x {2.1 3.0 2 ------- null}
h -t 0.171328 -s 8 -d 3 -p ack -e 40 -c 0 -i 5 -a 0 -x {2.1 3.0 -1 ------- null}
r -t 0.180928 -s 8 -d 3 -p ack -e 40 -c 0 -i 4 -a 0 -x {2.1 3.0 1 ------- null}
+ -t 0.180928 -s 3 -d 8 -p tcp -e 1040 -c 0 -i 6 -a 0 -x {3.0 2.1 3 ------- null}
- -t 0.180928 -s 3 -d 8 -p tcp -e 1040 -c 0 -i 6 -a 0 -x {3.0 2.1 3 ------- null}
h -t 0.180928 -s 3 -d 8 -p tcp -e 1040 -c 0 -i 6 -a 0 -x {3.0 2.1 -1 ------- null}
+ -t 0.180928 -s 3 -d 8 -p tcp -e 1040 -c 0 -i 7 -a 0 -x {3.0 2.1 4 ------- null}
r -t 0.181344 -s 8 -d 3 -p ack -e 40 -c 0 -i 5 -a 0 -x {2.1 3.0 2 ------- null}
+ -t 0.181344 -s 3 -d 8 -p tcp -e 1040 -c 0 -i 8 -a 0 -x {3.0 2.1 5 ------- null}
- -t 0.181344 -s 3 -d 8 -p tcp -e 1040 -c 0 -i 7 -a 0 -x {3.0 2.1 4 ------- null}
h -t 0.181344 -s 3 -d 8 -p tcp -e 1040 -c 0 -i 7 -a 0 -x {3.0 2.1 -1 ------- null}
- -t 0.18176 -s 3 -d 8 -p tcp -e 1040 -c 0 -i 8 -a 0 -x {3.0 2.1 5 ------- null}
h -t 0.18176 -s 3 -d 8 -p tcp -e 1040 -c 0 -i 8 -a 0 -x {3.0 2.1 -1 ------- null}
+ -t 0.189285714285714 -s 3 -d 8 -p tcp -e 1040 -c 0 -i 9 -a 0 -x {3.0 2.1 6 ------- null}
- -t 0.189285714285714 -s 3 -d 8 -p tcp -e 1040 -c 0 -i 9 -a 0 -x {3.0 2.1 6 ------- null}
h -t 0.189285714285714 -s 3 -d 8 -p tcp -e 1040 -c 0 -i 9 -a 0 -x {3.0 2.1 -1 ------- null}
r -t 0.191344 -s 3 -d 8 -p tcp -e 1040 -c 0 -i 6 -a 0 -x {3.0 2.1 3 ------- null}
+ -t 0.191344 -s 8 -d 2 -p tcp -e 1040 -c 0 -i 6 -a 0 -x {3.0 2.1 3 ------- null}
- -t 0.191344 -s 8 -d 2 -p tcp -e 1040 -c 0 -i 6 -a 0 -x {3.0 2.1 3 ------- null}
h -t 0.191344 -s 8 -d 2 -p tcp -e 1040 -c 0 -i 6 -a 0 -x {3.0 2.1 -1 ------- null}
r -t 0.19176 -s 3 -d 8 -p tcp -e 1040 -c 0 -i 7 -a 0 -x {3.0 2.1 4 ------- null}
+ -t 0.19176 -s 8 -d 2 -p tcp -e 1040 -c 0 -i 7 -a 0 -x {3.0 2.1 4 ------- null}
- -t 0.19176 -s 8 -d 2 -p tcp -e 1040 -c 0 -i 7 -a 0 -x {3.0 2.1 4 ------- null}
h -t 0.19176 -s 8 -d 2 -p tcp -e 1040 -c 0 -i 7 -a 0 -x {3.0 2.1 -1 ------- null}
r -t 0.192176 -s 3 -d 8 -p tcp -e 1040 -c 0 -i 8 -a 0 -x {3.0 2.1 5 ------- null}
+ -t 0.192176 -s 8 -d 2 -p tcp -e 1040 -c 0 -i 8 -a 0 -x {3.0 2.1 5 ------- null}
- -t 0.192176 -s 8 -d 2 -p tcp -e 1040 -c 0 -i 8 -a 0 -x {3.0 2.1 5 ------- null}
h -t 0.192176 -s 8 -d 2 -p tcp -e 1040 -c 0 -i 8 -a 0 -x {3.0 2.1 -1 ------- null}
r -t 0.199701714285714 -s 3 -d 8 -p tcp -e 1040 -c 0 -i 9 -a 0 -x {3.0 2.1 6 ------- null}
+ -t 0.199701714285714 -s 8 -d 2 -p tcp -e 1040 -c 0 -i 9 -a 0 -x {3.0 2.1 6 ------- null}
- -t 0.199701714285714 -s 8 -d 2 -p tcp -e 1040 -c 0 -i 9 -a 0 -x {3.0 2.1 6 ------- null}
h -t 0.199701714285714 -s 8 -d 2 -p tcp -e 1040 -c 0 -i 9 -a 0 -x {3.0 2.1 -1 ------- null}
r -t 0.20176 -s 8 -d 2 -p tcp -e 1040 -c 0 -i 6 -a 0 -x {3.0 2.1 3 ------- null}
+ -t 0.20176 -s 2 -d 8 -p ack -e 40 -c 0 -i 10 -a 0 -x {2.1 3.0 3 ------- null}
- -t 0.20176 -s 2 -d 8 -p ack -e 40 -c 0 -i 10 -a 0 -x {2.1 3.0 3 ------- null}
h -t 0.20176 -s 2 -d 8 -p ack -e 40 -c 0 -i 10 -a 0 -x {2.1 3.0 -1 ------- null}
r -t 0.202176 -s 8 -d 2 -p tcp -e 1040 -c 0 -i 7 -a 0 -x {3.0 2.1 4 ------- null}
+ -t 0.202176 -s 2 -d 8 -p ack -e 40 -c 0 -i 11 -a 0 -x {2.1 3.0 4 ------- null}
- -t 0.202176 -s 2 -d 8 -p ack -e 40 -c 0 -i 11 -a 0 -x {2.1 3.0 4 ------- null}
h -t 0.202176 -s 2 -d 8 -p ack -e 40 -c 0 -i 11 -a 0 -x {2.1 3.0 -1 ------- null}
r -t 0.202592 -s 8 -d 2 -p tcp -e 1040 -c 0 -i 8 -a 0 -x {3.0 2.1 5 ------- null}
+ -t 0.202592 -s 2 -d 8 -p ack -e 40 -c 0 -i 12 -a 0 -x {2.1 3.0 5 ------- null}
- -t 0.202592 -s 2 -d 8 -p ack -e 40 -c 0 -i 12 -a 0 -x {2.1 3.0 5 ------- null}
h -t 0.202592 -s 2 -d 8 -p ack -e 40 -c 0 -i 12 -a 0 -x {2.1 3.0 -1 ------- null}
r -t 0.210117714285714 -s 8 -d 2 -p tcp -e 1040 -c 0 -i 9 -a 0 -x {3.0 2.1 6 ------- null}
+ -t 0.210117714285714 -s 2 -d 8 -p ack -e 40 -c 0 -i 13 -a 0 -x {2.1 3.0 6 ------- null}
- -t 0.210117714285714 -s 2 -d 8 -p ack -e 40 -c 0 -i 13 -a 0 -x {2.1 3.0 6 ------- null}
h -t 0.210117714285714 -s 2 -d 8 -p ack -e 40 -c 0 -i 13 -a 0 -x {2.1 3.0 -1 ------- null}
r -t 0.211776 -s 2 -d 8 -p ack -e 40 -c 0 -i 10 -a 0 -x {2.1 3.0 3 ------- null}
+ -t 0.211776 -s 8 -d 3 -p ack -e 40 -c 0 -i 10 -a 0 -x {2.1 3.0 3 ------- null}
- -t 0.211776 -s 8 -d 3 -p ack -e 40 -c 0 -i 10 -a 0 -x {2.1 3.0 3 ------- null}
h -t 0.211776 -s 8 -d 3 -p ack -e 40 -c 0 -i 10 -a 0 -x {2.1 3.0 -1 ------- null}
r -t 0.212192 -s 2 -d 8 -p ack -e 40 -c 0 -i 11 -a 0 -x {2.1 3.0 4 ------- null}
+ -t 0.212192 -s 8 -d 3 -p ack -e 40 -c 0 -i 11 -a 0 -x {2.1 3.0 4 ------- null}
- -t 0.212192 -s 8 -d 3 -p ack -e 40 -c 0 -i 11 -a 0 -x {2.1 3.0 4 ------- null}
h -t 0.212192 -s 8 -d 3 -p ack -e 40 -c 0 -i 11 -a 0 -x {2.1 3.0 -1 ------- null}
r -t 0.212608 -s 2 -d 8 -p ack -e 40 -c 0 -i 12 -a 0 -x {2.1 3.0 5 ------- null}
+ -t 0.212608 -s 8 -d 3 -p ack -e 40 -c 0 -i 12 -a 0 -x {2.1 3.0 5 ------- null}
- -t 0.212608 -s 8 -d 3 -p ack -e 40 -c 0 -i 12 -a 0 -x {2.1 3.0 5 ------- null}
h -t 0.212608 -s 8 -d 3 -p ack -e 40 -c 0 -i 12 -a 0 -x {2.1 3.0 -1 ------- null}
r -t 0.220133714285714 -s 2 -d 8 -p ack -e 40 -c 0 -i 13 -a 0 -x {2.1 3.0 6 ------- null}
+ -t 0.220133714285714 -s 8 -d 3 -p ack -e 40 -c 0 -i 13 -a 0 -x {2.1 3.0 6 ------- null}
- -t 0.220133714285714 -s 8 -d 3 -p ack -e 40 -c 0 -i 13 -a 0 -x {2.1 3.0 6 ------- null}
h -t 0.220133714285714 -s 8 -d 3 -p ack -e 40 -c 0 -i 13 -a 0 -x {2.1 3.0 -1 ------- null}
r -t 0.221792 -s 8 -d 3 -p ack -e 40 -c 0 -i 10 -a 0 -x {2.1 3.0 3 ------- null}
+ -t 0.221792 -s 3 -d 8 -p tcp -e 1040 -c 0 -i 14 -a 0 -x {3.0 2.1 7 ------- null}
- -t 0.221792 -s 3 -d 8 -p tcp -e 1040 -c 0 -i 14 -a 0 -x {3.0 2.1 7 ------- null}
h -t 0.221792 -s 3 -d 8 -p tcp -e 1040 -c 0 -i 14 -a 0 -x {3.0 2.1 -1 ------- null}
r -t 0.222208 -s 8 -d 3 -p ack -e 40 -c 0 -i 11 -a 0 -x {2.1 3.0 4 ------- null}
r -t 0.222624 -s 8 -d 3 -p ack -e 40 -c 0 -i 12 -a 0 -x {2.1 3.0 5 ------- null}
+ -t 0.225 -s 3 -d 8 -p tcp -e 1040 -c 0 -i 15 -a 0 -x {3.0 2.1 8 ------- null}
- -t 0.225 -s 3 -d 8 -p tcp -e 1040 -c 0 -i 15 -a 0 -x {3.0 2.1 8 ------- null}
h -t 0.225 -s 3 -d 8 -p tcp -e 1040 -c 0 -i 15 -a 0 -x {3.0 2.1 -1 ------- null}
r -t 0.230149714285714 -s 8 -d 3 -p ack -e 40 -c 0 -i 13 -a 0 -x {2.1 3.0 6 ------- null}
r -t 0.232208 -s 3 -d 8 -p tcp -e 1040 -c 0 -i 14 -a 0 -x {3.0 2.1 7 ------- null}
+ -t 0.232208 -s 8 -d 2 -p tcp -e 1040 -c 0 -i 14 -a 0 -x {3.0 2.1 7 ------- null}
- -t 0.232208 -s 8 -d 2 -p tcp -e 1040 -c 0 -i 14 -a 0 -x {3.0 2.1 7 ------- null}
h -t 0.232208 -s 8 -d 2 -p tcp -e 1040 -c 0 -i 14 -a 0 -x {3.0 2.1 -1 ------- null}
r -t 0.235416 -s 3 -d 8 -p tcp -e 1040 -c 0 -i 15 -a 0 -x {3.0 2.1 8 ------- null}
+ -t 0.235416 -s 8 -d 2 -p tcp -e 1040 -c 0 -i 15 -a 0 -x {3.0 2.1 8 ------- null}
- -t 0.235416 -s 8 -d 2 -p tcp -e 1040 -c 0 -i 15 -a 0 -x {3.0 2.1 8 ------- null}
h -t 0.235416 -s 8 -d 2 -p tcp -e 1040 -c 0 -i 15 -a 0 -x {3.0 2.1 -1 ------- null}
r -t 0.242624 -s 8 -d 2 -p tcp -e 1040 -c 0 -i 14 -a 0 -x {3.0 2.1 7 ------- null}
+ -t 0.242624 -s 2 -d 8 -p ack -e 40 -c 0 -i 16 -a 0 -x {2.1 3.0 7 ------- null}
- -t 0.242624 -s 2 -d 8 -p ack -e 40 -c 0 -i 16 -a 0 -x {2.1 3.0 7 ------- null}
h -t 0.242624 -s 2 -d 8 -p ack -e 40 -c 0 -i 16 -a 0 -x {2.1 3.0 -1 ------- null}
+ -t 0.242857142857143 -s 3 -d 8 -p tcp -e 1040 -c 0 -i 17 -a 0 -x {3.0 2.1 9 ------- null}
- -t 0.242857142857143 -s 3 -d 8 -p tcp -e 1040 -c 0 -i 17 -a 0 -x {3.0 2.1 9 ------- null}
h -t 0.242857142857143 -s 3 -d 8 -p tcp -e 1040 -c 0 -i 17 -a 0 -x {3.0 2.1 -1 ------- null}
r -t 0.245832 -s 8 -d 2 -p tcp -e 1040 -c 0 -i 15 -a 0 -x {3.0 2.1 8 ------- null}
+ -t 0.245832 -s 2 -d 8 -p ack -e 40 -c 0 -i 18 -a 0 -x {2.1 3.0 8 ------- null}
- -t 0.245832 -s 2 -d 8 -p ack -e 40 -c 0 -i 18 -a 0 -x {2.1 3.0 8 ------- null}
h -t 0.245832 -s 2 -d 8 -p ack -e 40 -c 0 -i 18 -a 0 -x {2.1 3.0 -1 ------- null}
r -t 0.25264 -s 2 -d 8 -p ack -e 40 -c 0 -i 16 -a 0 -x {2.1 3.0 7 ------- null}
+ -t 0.25264 -s 8 -d 3 -p ack -e 40 -c 0 -i 16 -a 0 -x {2.1 3.0 7 ------- null}
- -t 0.25264 -s 8 -d 3 -p ack -e 40 -c 0 -i 16 -a 0 -x {2.1 3.0 7 ------- null}
h -t 0.25264 -s 8 -d 3 -p ack -e 40 -c 0 -i 16 -a 0 -x {2.1 3.0 -1 ------- null}
r -t 0.253273142857143 -s 3 -d 8 -p tcp -e 1040 -c 0 -i 17 -a 0 -x {3.0 2.1 9 ------- null}
+ -t 0.253273142857143 -s 8 -d 2 -p tcp -e 1040 -c 0 -i 17 -a 0 -x {3.0 2.1 9 ------- null}
- -t 0.253273142857143 -s 8 -d 2 -p tcp -e 1040 -c 0 -i 17 -a 0 -x {3.0 2.1 9 ------- null}
h -t 0.253273142857143 -s 8 -d 2 -p tcp -e 1040 -c 0 -i 17 -a 0 -x {3.0 2.1 -1 ------- null}
r -t 0.255848 -s 2 -d 8 -p ack -e 40 -c 0 -i 18 -a 0 -x {2.1 3.0 8 ------- null}
+ -t 0.255848 -s 8 -d 3 -p ack -e 40 -c 0 -i 18 -a 0 -x {2.1 3.0 8 ------- null}
- -t 0.255848 -s 8 -d 3 -p ack -e 40 -c 0 -i 18 -a 0 -x {2.1 3.0 8 ------- null}
h -t 0.255848 -s 8 -d 3 -p ack -e 40 -c 0 -i 18 -a 0 -x {2.1 3.0 -1 ------- null}
+ -t 0.260714285714286 -s 3 -d 8 -p tcp -e 1040 -c 0 -i 19 -a 0 -x {3.0 2.1 10 ------- null}
- -t 0.260714285714286 -s 3 -d 8 -p tcp -e 1040 -c 0 -i 19 -a 0 -x {3.0 2.1 10 ------- null}
h -t 0.260714285714286 -s 3 -d 8 -p tcp -e 1040 -c 0 -i 19 -a 0 -x {3.0 2.1 -1 ------- null}
r -t 0.262656 -s 8 -d 3 -p ack -e 40 -c 0 -i 16 -a 0 -x {2.1 3.0 7 ------- null}
r -t 0.263689142857143 -s 8 -d 2 -p tcp -e 1040 -c 0 -i 17 -a 0 -x {3.0 2.1 9 ------- null}
+ -t 0.263689142857143 -s 2 -d 8 -p ack -e 40 -c 0 -i 20 -a 0 -x {2.1 3.0 9 ------- null}
- -t 0.263689142857143 -s 2 -d 8 -p ack -e 40 -c 0 -i 20 -a 0 -x {2.1 3.0 9 ------- null}
h -t 0.263689142857143 -s 2 -d 8 -p ack -e 40 -c 0 -i 20 -a 0 -x {2.1 3.0 -1 ------- null}
r -t 0.265864 -s 8 -d 3 -p ack -e 40 -c 0 -i 18 -a 0 -x {2.1 3.0 8 ------- null}
r -t 0.271130285714286 -s 3 -d 8 -p tcp -e 1040 -c 0 -i 19 -a 0 -x {3.0 2.1 10 ------- null}
+ -t 0.271130285714286 -s 8 -d 2 -p tcp -e 1040 -c 0 -i 19 -a 0 -x {3.0 2.1 10 ------- null}
- -t 0.271130285714286 -s 8 -d 2 -p tcp -e 1040 -c 0 -i 19 -a 0 -x {3.0 2.1 10 ------- null}
h -t 0.271130285714286 -s 8 -d 2 -p tcp -e 1040 -c 0 -i 19 -a 0 -x {3.0 2.1 -1 ------- null}
r -t 0.273705142857143 -s 2 -d 8 -p ack -e 40 -c 0 -i 20 -a 0 -x {2.1 3.0 9 ------- null}
+ -t 0.273705142857143 -s 8 -d 3 -p ack -e 40 -c 0 -i 20 -a 0 -x {2.1 3.0 9 ------- null}
- -t 0.273705142857143 -s 8 -d 3 -p ack -e 40 -c 0 -i 20 -a 0 -x {2.1 3.0 9 ------- null}
h -t 0.273705142857143 -s 8 -d 3 -p ack -e 40 -c 0 -i 20 -a 0 -x {2.1 3.0 -1 ------- null}
+ -t 0.278571428571429 -s 3 -d 8 -p tcp -e 1040 -c 0 -i 21 -a 0 -x {3.0 2.1 11 ------- null}
- -t 0.278571428571429 -s 3 -d 8 -p tcp -e 1040 -c 0 -i 21 -a 0 -x {3.0 2.1 11 ------- null}
h -t 0.278571428571429 -s 3 -d 8 -p tcp -e 1040 -c 0 -i 21 -a 0 -x {3.0 2.1 -1 ------- null}
r -t 0.281546285714286 -s 8 -d 2 -p tcp -e 1040 -c 0 -i 19 -a 0 -x {3.0 2.1 10 ------- null}
+ -t 0.281546285714286 -s 2 -d 8 -p ack -e 40 -c 0 -i 22 -a 0 -x {2.1 3.0 10 ------- null}
- -t 0.281546285714286 -s 2 -d 8 -p ack -e 40 -c 0 -i 22 -a 0 -x {2.1 3.0 10 ------- null}
h -t 0.281546285714286 -s 2 -d 8 -p ack -e 40 -c 0 -i 22 -a 0 -x {2.1 3.0 -1 ------- null}
r -t 0.283721142857143 -s 8 -d 3 -p ack -e 40 -c 0 -i 20 -a 0 -x {2.1 3.0 9 ------- null}
r -t 0.288987428571429 -s 3 -d 8 -p tcp -e 1040 -c 0 -i 21 -a 0 -x {3.0 2.1 11 ------- null}
+ -t 0.288987428571429 -s 8 -d 2 -p tcp -e 1040 -c 0 -i 21 -a 0 -x {3.0 2.1 11 ------- null}
- -t 0.288987428571429 -s 8 -d 2 -p tcp -e 1040 -c 0 -i 21 -a 0 -x {3.0 2.1 11 ------- null}
h -t 0.288987428571429 -s 8 -d 2 -p tcp -e 1040 -c 0 -i 21 -a 0 -x {3.0 2.1 -1 ------- null}
r -t 0.291562285714286 -s 2 -d 8 -p ack -e 40 -c 0 -i 22 -a 0 -x {2.1 3.0 10 ------- null}
+ -t 0.291562285714286 -s 8 -d 3 -p ack -e 40 -c 0 -i 22 -a 0 -x {2.1 3.0 10 ------- null}
- -t 0.291562285714286 -s 8 -d 3 -p ack -e 40 -c 0 -i 22 -a 0 -x {2.1 3.0 10 ------- null}
h -t 0.291562285714286 -s 8 -d 3 -p ack -e 40 -c 0 -i 22 -a 0 -x {2.1 3.0 -1 ------- null}
+ -t 0.296428571428571 -s 3 -d 8 -p tcp -e 1040 -c 0 -i 23 -a 0 -x {3.0 2.1 12 ------- null}
- -t 0.296428571428571 -s 3 -d 8 -p tcp -e 1040 -c 0 -i 23 -a 0 -x {3.0 2.1 12 ------- null}
h -t 0.296428571428571 -s 3 -d 8 -p tcp -e 1040 -c 0 -i 23 -a 0 -x {3.0 2.1 -1 ------- null}
r -t 0.299403428571428 -s 8 -d 2 -p tcp -e 1040 -c 0 -i 21 -a 0 -x {3.0 2.1 11 ------- null}
+ -t 0.299403428571428 -s 2 -d 8 -p ack -e 40 -c 0 -i 24 -a 0 -x {2.1 3.0 11 ------- null}
- -t 0.299403428571428 -s 2 -d 8 -p ack -e 40 -c 0 -i 24 -a 0 -x {2.1 3.0 11 ------- null}
h -t 0.299403428571428 -s 2 -d 8 -p ack -e 40 -c 0 -i 24 -a 0 -x {2.1 3.0 -1 ------- null}
+ -t 0.3 -s 7 -d 9 -p cbr -e 1000 -c 0 -i 25 -a 0 -x {7.0 2.2 0 ------- null}
- -t 0.3 -s 7 -d 9 -p cbr -e 1000 -c 0 -i 25 -a 0 -x {7.0 2.2 0 ------- null}
h -t 0.3 -s 7 -d 9 -p cbr -e 1000 -c 0 -i 25 -a 0 -x {7.0 2.2 -1 ------- null}
r -t 0.301578285714286 -s 8 -d 3 -p ack -e 40 -c 0 -i 22 -a 0 -x {2.1 3.0 10 ------- null}
r -t 0.306844571428571 -s 3 -d 8 -p tcp -e 1040 -c 0 -i 23 -a 0 -x {3.0 2.1 12 ------- null}
+ -t 0.306844571428571 -s 8 -d 2 -p tcp -e 1040 -c 0 -i 23 -a 0 -x {3.0 2.1 12 ------- null}
- -t 0.306844571428571 -s 8 -d 2 -p tcp -e 1040 -c 0 -i 23 -a 0 -x {3.0 2.1 12 ------- null}
h -t 0.306844571428571 -s 8 -d 2 -p tcp -e 1040 -c 0 -i 23 -a 0 -x {3.0 2.1 -1 ------- null}
r -t 0.309419428571429 -s 2 -d 8 -p ack -e 40 -c 0 -i 24 -a 0 -x {2.1 3.0 11 ------- null}
+ -t 0.309419428571429 -s 8 -d 3 -p ack -e 40 -c 0 -i 24 -a 0 -x {2.1 3.0 11 ------- null}
- -t 0.309419428571429 -s 8 -d 3 -p ack -e 40 -c 0 -i 24 -a 0 -x {2.1 3.0 11 ------- null}
h -t 0.309419428571429 -s 8 -d 3 -p ack -e 40 -c 0 -i 24 -a 0 -x {2.1 3.0 -1 ------- null}
r -t 0.3104 -s 7 -d 9 -p cbr -e 1000 -c 0 -i 25 -a 0 -x {7.0 2.2 0 ------- null}
+ -t 0.3104 -s 9 -d 10 -p cbr -e 1000 -c 0 -i 25 -a 0 -x {7.0 2.2 0 ------- null}
- -t 0.3104 -s 9 -d 10 -p cbr -e 1000 -c 0 -i 25 -a 0 -x {7.0 2.2 0 ------- null}
h -t 0.3104 -s 9 -d 10 -p cbr -e 1000 -c 0 -i 25 -a 0 -x {7.0 2.2 -1 ------- null}
+ -t 0.314285714285714 -s 3 -d 8 -p tcp -e 1040 -c 0 -i 26 -a 0 -x {3.0 2.1 13 ------- null}
- -t 0.314285714285714 -s 3 -d 8 -p tcp -e 1040 -c 0 -i 26 -a 0 -x {3.0 2.1 13 ------- null}
h -t 0.314285714285714 -s 3 -d 8 -p tcp -e 1040 -c 0 -i 26 -a 0 -x {3.0 2.1 -1 ------- null}
r -t 0.317260571428571 -s 8 -d 2 -p tcp -e 1040 -c 0 -i 23 -a 0 -x {3.0 2.1 12 ------- null}
+ -t 0.317260571428571 -s 2 -d 8 -p ack -e 40 -c 0 -i 27 -a 0 -x {2.1 3.0 12 ------- null}
- -t 0.317260571428571 -s 2 -d 8 -p ack -e 40 -c 0 -i 27 -a 0 -x {2.1 3.0 12 ------- null}
h -t 0.317260571428571 -s 2 -d 8 -p ack -e 40 -c 0 -i 27 -a 0 -x {2.1 3.0 -1 ------- null}
+ -t 0.317857142857143 -s 7 -d 9 -p cbr -e 1000 -c 0 -i 28 -a 0 -x {7.0 2.2 1 ------- null}
- -t 0.317857142857143 -s 7 -d 9 -p cbr -e 1000 -c 0 -i 28 -a 0 -x {7.0 2.2 1 ------- null}
h -t 0.317857142857143 -s 7 -d 9 -p cbr -e 1000 -c 0 -i 28 -a 0 -x {7.0 2.2 -1 ------- null}
r -t 0.319435428571429 -s 8 -d 3 -p ack -e 40 -c 0 -i 24 -a 0 -x {2.1 3.0 11 ------- null}
r -t 0.3208 -s 9 -d 10 -p cbr -e 1000 -c 0 -i 25 -a 0 -x {7.0 2.2 0 ------- null}
+ -t 0.3208 -s 10 -d 8 -p cbr -e 1000 -c 0 -i 25 -a 0 -x {7.0 2.2 0 ------- null}
- -t 0.3208 -s 10 -d 8 -p cbr -e 1000 -c 0 -i 25 -a 0 -x {7.0 2.2 0 ------- null}
h -t 0.3208 -s 10 -d 8 -p cbr -e 1000 -c 0 -i 25 -a 0 -x {7.0 2.2 -1 ------- null}
r -t 0.324701714285714 -s 3 -d 8 -p tcp -e 1040 -c 0 -i 26 -a 0 -x {3.0 2.1 13 ------- null}
+ -t 0.324701714285714 -s 8 -d 2 -p tcp -e 1040 -c 0 -i 26 -a 0 -x {3.0 2.1 13 ------- null}
- -t 0.324701714285714 -s 8 -d 2 -p tcp -e 1040 -c 0 -i 26 -a 0 -x {3.0 2.1 13 ------- null}
h -t 0.324701714285714 -s 8 -d 2 -p tcp -e 1040 -c 0 -i 26 -a 0 -x {3.0 2.1 -1 ------- null}
r -t 0.327276571428571 -s 2 -d 8 -p ack -e 40 -c 0 -i 27 -a 0 -x {2.1 3.0 12 ------- null}
+ -t 0.327276571428571 -s 8 -d 3 -p ack -e 40 -c 0 -i 27 -a 0 -x {2.1 3.0 12 ------- null}
- -t 0.327276571428571 -s 8 -d 3 -p ack -e 40 -c 0 -i 27 -a 0 -x {2.1 3.0 12 ------- null}
h -t 0.327276571428571 -s 8 -d 3 -p ack -e 40 -c 0 -i 27 -a 0 -x {2.1 3.0 -1 ------- null}
r -t 0.328257142857143 -s 7 -d 9 -p cbr -e 1000 -c 0 -i 28 -a 0 -x {7.0 2.2 1 ------- null}
+ -t 0.328257142857143 -s 9 -d 10 -p cbr -e 1000 -c 0 -i 28 -a 0 -x {7.0 2.2 1 ------- null}
- -t 0.328257142857143 -s 9 -d 10 -p cbr -e 1000 -c 0 -i 28 -a 0 -x {7.0 2.2 1 ------- null}
h -t 0.328257142857143 -s 9 -d 10 -p cbr -e 1000 -c 0 -i 28 -a 0 -x {7.0 2.2 -1 ------- null}
r -t 0.3312 -s 10 -d 8 -p cbr -e 1000 -c 0 -i 25 -a 0 -x {7.0 2.2 0 ------- null}
+ -t 0.3312 -s 8 -d 2 -p cbr -e 1000 -c 0 -i 25 -a 0 -x {7.0 2.2 0 ------- null}
- -t 0.3312 -s 8 -d 2 -p cbr -e 1000 -c 0 -i 25 -a 0 -x {7.0 2.2 0 ------- null}
h -t 0.3312 -s 8 -d 2 -p cbr -e 1000 -c 0 -i 25 -a 0 -x {7.0 2.2 -1 ------- null}
+ -t 0.332142857142857 -s 3 -d 8 -p tcp -e 1040 -c 0 -i 29 -a 0 -x {3.0 2.1 14 ------- null}
- -t 0.332142857142857 -s 3 -d 8 -p tcp -e 1040 -c 0 -i 29 -a 0 -x {3.0 2.1 14 ------- null}
h -t 0.332142857142857 -s 3 -d 8 -p tcp -e 1040 -c 0 -i 29 -a 0 -x {3.0 2.1 -1 ------- null}
r -t 0.335117714285714 -s 8 -d 2 -p tcp -e 1040 -c 0 -i 26 -a 0 -x {3.0 2.1 13 ------- null}
+ -t 0.335117714285714 -s 2 -d 8 -p ack -e 40 -c 0 -i 30 -a 0 -x {2.1 3.0 13 ------- null}
- -t 0.335117714285714 -s 2 -d 8 -p ack -e 40 -c 0 -i 30 -a 0 -x {2.1 3.0 13 ------- null}
h -t 0.335117714285714 -s 2 -d 8 -p ack -e 40 -c 0 -i 30 -a 0 -x {2.1 3.0 -1 ------- null}
+ -t 0.335714285714286 -s 7 -d 9 -p cbr -e 1000 -c 0 -i 31 -a 0 -x {7.0 2.2 2 ------- null}
- -t 0.335714285714286 -s 7 -d 9 -p cbr -e 1000 -c 0 -i 31 -a 0 -x {7.0 2.2 2 ------- null}
h -t 0.335714285714286 -s 7 -d 9 -p cbr -e 1000 -c 0 -i 31 -a 0 -x {7.0 2.2 -1 ------- null}
r -t 0.337292571428571 -s 8 -d 3 -p ack -e 40 -c 0 -i 27 -a 0 -x {2.1 3.0 12 ------- null}
r -t 0.338657142857143 -s 9 -d 10 -p cbr -e 1000 -c 0 -i 28 -a 0 -x {7.0 2.2 1 ------- null}
+ -t 0.338657142857143 -s 10 -d 8 -p cbr -e 1000 -c 0 -i 28 -a 0 -x {7.0 2.2 1 ------- null}
- -t 0.338657142857143 -s 10 -d 8 -p cbr -e 1000 -c 0 -i 28 -a 0 -x {7.0 2.2 1 ------- null}
h -t 0.338657142857143 -s 10 -d 8 -p cbr -e 1000 -c 0 -i 28 -a 0 -x {7.0 2.2 -1 ------- null}
r -t 0.3416 -s 8 -d 2 -p cbr -e 1000 -c 0 -i 25 -a 0 -x {7.0 2.2 0 ------- null}
r -t 0.342558857142857 -s 3 -d 8 -p tcp -e 1040 -c 0 -i 29 -a 0 -x {3.0 2.1 14 ------- null}
+ -t 0.342558857142857 -s 8 -d 2 -p tcp -e 1040 -c 0 -i 29 -a 0 -x {3.0 2.1 14 ------- null}
- -t 0.342558857142857 -s 8 -d 2 -p tcp -e 1040 -c 0 -i 29 -a 0 -x {3.0 2.1 14 ------- null}
h -t 0.342558857142857 -s 8 -d 2 -p tcp -e 1040 -c 0 -i 29 -a 0 -x {3.0 2.1 -1 ------- null}
r -t 0.345133714285714 -s 2 -d 8 -p ack -e 40 -c 0 -i 30 -a 0 -x {2.1 3.0 13 ------- null}
+ -t 0.345133714285714 -s 8 -d 3 -p ack -e 40 -c 0 -i 30 -a 0 -x {2.1 3.0 13 ------- null}
- -t 0.345133714285714 -s 8 -d 3 -p ack -e 40 -c 0 -i 30 -a 0 -x {2.1 3.0 13 ------- null}
h -t 0.345133714285714 -s 8 -d 3 -p ack -e 40 -c 0 -i 30 -a 0 -x {2.1 3.0 -1 ------- null}
r -t 0.346114285714286 -s 7 -d 9 -p cbr -e 1000 -c 0 -i 31 -a 0 -x {7.0 2.2 2 ------- null}
+ -t 0.346114285714286 -s 9 -d 10 -p cbr -e 1000 -c 0 -i 31 -a 0 -x {7.0 2.2 2 ------- null}
- -t 0.346114285714286 -s 9 -d 10 -p cbr -e 1000 -c 0 -i 31 -a 0 -x {7.0 2.2 2 ------- null}
h -t 0.346114285714286 -s 9 -d 10 -p cbr -e 1000 -c 0 -i 31 -a 0 -x {7.0 2.2 -1 ------- null}
r -t 0.349057142857143 -s 10 -d 8 -p cbr -e 1000 -c 0 -i 28 -a 0 -x {7.0 2.2 1 ------- null}
+ -t 0.349057142857143 -s 8 -d 2 -p cbr -e 1000 -c 0 -i 28 -a 0 -x {7.0 2.2 1 ------- null}
- -t 0.349057142857143 -s 8 -d 2 -p cbr -e 1000 -c 0 -i 28 -a 0 -x {7.0 2.2 1 ------- null}
h -t 0.349057142857143 -s 8 -d 2 -p cbr -e 1000 -c 0 -i 28 -a 0 -x {7.0 2.2 -1 ------- null}
+ -t 0.35 -s 3 -d 8 -p tcp -e 1040 -c 0 -i 32 -a 0 -x {3.0 2.1 15 ------- null}
- -t 0.35 -s 3 -d 8 -p tcp -e 1040 -c 0 -i 32 -a 0 -x {3.0 2.1 15 ------- null}
h -t 0.35 -s 3 -d 8 -p tcp -e 1040 -c 0 -i 32 -a 0 -x {3.0 2.1 -1 ------- null}
r -t 0.352974857142857 -s 8 -d 2 -p tcp -e 1040 -c 0 -i 29 -a 0 -x {3.0 2.1 14 ------- null}
+ -t 0.352974857142857 -s 2 -d 8 -p ack -e 40 -c 0 -i 33 -a 0 -x {2.1 3.0 14 ------- null}
- -t 0.352974857142857 -s 2 -d 8 -p ack -e 40 -c 0 -i 33 -a 0 -x {2.1 3.0 14 ------- null}
h -t 0.352974857142857 -s 2 -d 8 -p ack -e 40 -c 0 -i 33 -a 0 -x {2.1 3.0 -1 ------- null}
+ -t 0.353571428571429 -s 7 -d 9 -p cbr -e 1000 -c 0 -i 34 -a 0 -x {7.0 2.2 3 ------- null}
- -t 0.353571428571429 -s 7 -d 9 -p cbr -e 1000 -c 0 -i 34 -a 0 -x {7.0 2.2 3 ------- null}
h -t 0.353571428571429 -s 7 -d 9 -p cbr -e 1000 -c 0 -i 34 -a 0 -x {7.0 2.2 -1 ------- null}
r -t 0.355149714285714 -s 8 -d 3 -p ack -e 40 -c 0 -i 30 -a 0 -x {2.1 3.0 13 ------- null}
r -t 0.356514285714286 -s 9 -d 10 -p cbr -e 1000 -c 0 -i 31 -a 0 -x {7.0 2.2 2 ------- null}
+ -t 0.356514285714286 -s 10 -d 8 -p cbr -e 1000 -c 0 -i 31 -a 0 -x {7.0 2.2 2 ------- null}
- -t 0.356514285714286 -s 10 -d 8 -p cbr -e 1000 -c 0 -i 31 -a 0 -x {7.0 2.2 2 ------- null}
h -t 0.356514285714286 -s 10 -d 8 -p cbr -e 1000 -c 0 -i 31 -a 0 -x {7.0 2.2 -1 ------- null}
r -t 0.359457142857143 -s 8 -d 2 -p cbr -e 1000 -c 0 -i 28 -a 0 -x {7.0 2.2 1 ------- null}
r -t 0.360416 -s 3 -d 8 -p tcp -e 1040 -c 0 -i 32 -a 0 -x {3.0 2.1 15 ------- null}
+ -t 0.360416 -s 8 -d 2 -p tcp -e 1040 -c 0 -i 32 -a 0 -x {3.0 2.1 15 ------- null}
- -t 0.360416 -s 8 -d 2 -p tcp -e 1040 -c 0 -i 32 -a 0 -x {3.0 2.1 15 ------- null}
h -t 0.360416 -s 8 -d 2 -p tcp -e 1040 -c 0 -i 32 -a 0 -x {3.0 2.1 -1 ------- null}
r -t 0.362990857142857 -s 2 -d 8 -p ack -e 40 -c 0 -i 33 -a 0 -x {2.1 3.0 14 ------- null}
+ -t 0.362990857142857 -s 8 -d 3 -p ack -e 40 -c 0 -i 33 -a 0 -x {2.1 3.0 14 ------- null}
- -t 0.362990857142857 -s 8 -d 3 -p ack -e 40 -c 0 -i 33 -a 0 -x {2.1 3.0 14 ------- null}
h -t 0.362990857142857 -s 8 -d 3 -p ack -e 40 -c 0 -i 33 -a 0 -x {2.1 3.0 -1 ------- null}
r -t 0.363971428571429 -s 7 -d 9 -p cbr -e 1000 -c 0 -i 34 -a 0 -x {7.0 2.2 3 ------- null}
+ -t 0.363971428571429 -s 9 -d 10 -p cbr -e 1000 -c 0 -i 34 -a 0 -x {7.0 2.2 3 ------- null}
- -t 0.363971428571429 -s 9 -d 10 -p cbr -e 1000 -c 0 -i 34 -a 0 -x {7.0 2.2 3 ------- null}
h -t 0.363971428571429 -s 9 -d 10 -p cbr -e 1000 -c 0 -i 34 -a 0 -x {7.0 2.2 -1 ------- null}
r -t 0.366914285714286 -s 10 -d 8 -p cbr -e 1000 -c 0 -i 31 -a 0 -x {7.0 2.2 2 ------- null}
+ -t 0.366914285714286 -s 8 -d 2 -p cbr -e 1000 -c 0 -i 31 -a 0 -x {7.0 2.2 2 ------- null}
- -t 0.366914285714286 -s 8 -d 2 -p cbr -e 1000 -c 0 -i 31 -a 0 -x {7.0 2.2 2 ------- null}
h -t 0.366914285714286 -s 8 -d 2 -p cbr -e 1000 -c 0 -i 31 -a 0 -x {7.0 2.2 -1 ------- null}
+ -t 0.367857142857143 -s 3 -d 8 -p tcp -e 1040 -c 0 -i 35 -a 0 -x {3.0 2.1 16 ------- null}
- -t 0.367857142857143 -s 3 -d 8 -p tcp -e 1040 -c 0 -i 35 -a 0 -x {3.0 2.1 16 ------- null}
h -t 0.367857142857143 -s 3 -d 8 -p tcp -e 1040 -c 0 -i 35 -a 0 -x {3.0 2.1 -1 ------- null}
r -t 0.370832 -s 8 -d 2 -p tcp -e 1040 -c 0 -i 32 -a 0 -x {3.0 2.1 15 ------- null}
+ -t 0.370832 -s 2 -d 8 -p ack -e 40 -c 0 -i 36 -a 0 -x {2.1 3.0 15 ------- null}
- -t 0.370832 -s 2 -d 8 -p ack -e 40 -c 0 -i 36 -a 0 -x {2.1 3.0 15 ------- null}
h -t 0.370832 -s 2 -d 8 -p ack -e 40 -c 0 -i 36 -a 0 -x {2.1 3.0 -1 ------- null}
+ -t 0.371428571428571 -s 7 -d 9 -p cbr -e 1000 -c 0 -i 37 -a 0 -x {7.0 2.2 4 ------- null}
- -t 0.371428571428571 -s 7 -d 9 -p cbr -e 1000 -c 0 -i 37 -a 0 -x {7.0 2.2 4 ------- null}
h -t 0.371428571428571 -s 7 -d 9 -p cbr -e 1000 -c 0 -i 37 -a 0 -x {7.0 2.2 -1 ------- null}
r -t 0.373006857142857 -s 8 -d 3 -p ack -e 40 -c 0 -i 33 -a 0 -x {2.1 3.0 14 ------- null}
r -t 0.374371428571429 -s 9 -d 10 -p cbr -e 1000 -c 0 -i 34 -a 0 -x {7.0 2.2 3 ------- null}
+ -t 0.374371428571429 -s 10 -d 8 -p cbr -e 1000 -c 0 -i 34 -a 0 -x {7.0 2.2 3 ------- null}
- -t 0.374371428571429 -s 10 -d 8 -p cbr -e 1000 -c 0 -i 34 -a 0 -x {7.0 2.2 3 ------- null}
h -t 0.374371428571429 -s 10 -d 8 -p cbr -e 1000 -c 0 -i 34 -a 0 -x {7.0 2.2 -1 ------- null}
r -t 0.377314285714286 -s 8 -d 2 -p cbr -e 1000 -c 0 -i 31 -a 0 -x {7.0 2.2 2 ------- null}
r -t 0.378273142857143 -s 3 -d 8 -p tcp -e 1040 -c 0 -i 35 -a 0 -x {3.0 2.1 16 ------- null}
+ -t 0.378273142857143 -s 8 -d 2 -p tcp -e 1040 -c 0 -i 35 -a 0 -x {3.0 2.1 16 ------- null}
- -t 0.378273142857143 -s 8 -d 2 -p tcp -e 1040 -c 0 -i 35 -a 0 -x {3.0 2.1 16 ------- null}
h -t 0.378273142857143 -s 8 -d 2 -p tcp -e 1040 -c 0 -i 35 -a 0 -x {3.0 2.1 -1 ------- null}
r -t 0.380848 -s 2 -d 8 -p ack -e 40 -c 0 -i 36 -a 0 -x {2.1 3.0 15 ------- null}
+ -t 0.380848 -s 8 -d 3 -p ack -e 40 -c 0 -i 36 -a 0 -x {2.1 3.0 15 ------- null}
- -t 0.380848 -s 8 -d 3 -p ack -e 40 -c 0 -i 36 -a 0 -x {2.1 3.0 15 ------- null}
h -t 0.380848 -s 8 -d 3 -p ack -e 40 -c 0 -i 36 -a 0 -x {2.1 3.0 -1 ------- null}
r -t 0.381828571428571 -s 7 -d 9 -p cbr -e 1000 -c 0 -i 37 -a 0 -x {7.0 2.2 4 ------- null}
+ -t 0.381828571428571 -s 9 -d 10 -p cbr -e 1000 -c 0 -i 37 -a 0 -x {7.0 2.2 4 ------- null}
- -t 0.381828571428571 -s 9 -d 10 -p cbr -e 1000 -c 0 -i 37 -a 0 -x {7.0 2.2 4 ------- null}
h -t 0.381828571428571 -s 9 -d 10 -p cbr -e 1000 -c 0 -i 37 -a 0 -x {7.0 2.2 -1 ------- null}