V -t * -v 1.0a5 -a 0
A -t * -n 1 -p 0 -o 0x7fffffff -c 30 -a 1
A -t * -h 1 -m 1073741823 -s 0
n -t * -a 4 -s 4 -S UP -v circle -c black -i black
n -t * -a 0 -s 0 -S UP -v circle -c black -i black
n -t * -a 5 -s 5 -S UP -v circle -c black -i black
n -t * -a 1 -s 1 -S UP -v circle -c black -i black
n -t * -a 2 -s 2 -S UP -v circle -c black -i black
n -t * -a 3 -s 3 -S UP -v circle -c black -i black
l -t * -s 0 -d 1 -S UP -r 20000000 -D 0.01 -c black
l -t * -s 1 -d 2 -S UP -r 20000000 -D 0.01 -c black
l -t * -s 2 -d 3 -S UP -r 20000000 -D 0.01 -c black
l -t * -s 3 -d 4 -S UP -r 20000000 -D 0.01 -c black
l -t * -s 4 -d 5 -S UP -r 20000000 -D 0.01 -c black
l -t * -s 5 -d 0 -S UP -r 20000000 -D 0.01 -c black
+ -t 0.000169788487334637 -s 0 -d 1 -p rtProtoDV -e 6 -c 0 -i 0 -a 0 -x {0.2 1.1 -1 ------- null}
- -t 0.000169788487334637 -s 0 -d 1 -p rtProtoDV -e 6 -c 0 -i 0 -a 0 -x {0.2 1.1 -1 ------- null}
h -t 0.000169788487334637 -s 0 -d 1 -p rtProtoDV -e 6 -c 0 -i 0 -a 0 -x {0.2 1.1 -1 ------- null}
+ -t 0.000169788487334637 -s 0 -d 5 -p rtProtoDV -e 6 -c 0 -i 1 -a 0 -x {0.2 5.1 -1 ------- null}
- -t 0.000169788487334637 -s 0 -d 5 -p rtProtoDV -e 6 -c 0 -i 1 -a 0 -x {0.2 5.1 -1 ------- null}
h -t 0.000169788487334637 -s 0 -d 5 -p rtProtoDV -e 6 -c 0 -i 1 -a 0 -x {0.2 5.1 -1 ------- null}
+ -t 0.00710233021858257 -s 2 -d 1 -p rtProtoDV -e 6 -c 0 -i 2 -a 0 -x {2.1 1.1 -1 ------- null}
- -t 0.00710233021858257 -s 2 -d 1 -p rtProtoDV -e 6 -c 0 -i 2 -a 0 -x {2.1 1.1 -1 ------- null}
h -t 0.00710233021858257 -s 2 -d 1 -p rtProtoDV -e 6 -c 0 -i 2 -a 0 -x {2.1 1.1 -1 ------- null}
+ -t 0.00710233021858257 -s 2 -d 3 -p rtProtoDV -e 6 -c 0 -i 3 -a 0 -x {2.1 3.2 -1 ------- null}
- -t 0.00710233021858257 -s 2 -d 3 -p rtProtoDV -e 6 -c 0 -i 3 -a 0 -x {2.1 3.2 -1 ------- null}
h -t 0.00710233021858257 -s 2 -d 3 -p rtProtoDV -e 6 -c 0 -i 3 -a 0 -x {2.1 3.2 -1 ------- null}
r -t 0.0101721884873346 -s 0 -d 1 -p rtProtoDV -e 6 -c 0 -i 0 -a 0 -x {0.2 1.1 -1 ------- null}
+ -t 0.0101721884873346 -s 1 -d 0 -p rtProtoDV -e 6 -c 0 -i 4 -a 0 -x {1.1 0.2 -1 ------- null}
- -t 0.0101721884873346 -s 1 -d 0 -p rtProtoDV -e 6 -c 0 -i 4 -a 0 -x {1.1 0.2 -1 ------- null}
h -t 0.0101721884873346 -s 1 -d 0 -p rtProtoDV -e 6 -c 0 -i 4 -a 0 -x {1.1 0.2 -1 ------- null}
+ -t 0.0101721884873346 -s 1 -d 2 -p rtProtoDV -e 6 -c 0 -i 5 -a 0 -x {1.1 2.1 -1 ------- null}
- -t 0.0101721884873346 -s 1 -d 2 -p rtProtoDV -e 6 -c 0 -i 5 -a 0 -x {1.1 2.1 -1 ------- null}
h -t 0.0101721884873346 -s 1 -d 2 -p rtProtoDV -e 6 -c 0 -i 5 -a 0 -x {1.1 2.1 -1 ------- null}
r -t 0.0101721884873346 -s 0 -d 5 -p rtProtoDV -e 6 -c 0 -i 1 -a 0 -x {0.2 5.1 -1 ------- null}
+ -t 0.0101721884873346 -s 5 -d 0 -p rtProtoDV -e 6 -c 0 -i 6 -a 0 -x {5.1 0.2 -1 ------- null}
- -t 0.0101721884873346 -s 5 -d 0 -p rtProtoDV -e 6 -c 0 -i 6 -a 0 -x {5.1 0.2 -1 ------- null}
h -t 0.0101721884873346 -s 5 -d 0 -p rtProtoDV -e 6 -c 0 -i 6 -a 0 -x {5.1 0.2 -1 ------- null}
+ -t 0.0101721884873346 -s 5 -d 4 -p rtProtoDV -e 6 -c 0 -i 7 -a 0 -x {5.1 4.1 -1 ------- null}
- -t 0.0101721884873346 -s 5 -d 4 -p rtProtoDV -e 6 -c 0 -i 7 -a 0 -x {5.1 4.1 -1 ------- null}
h -t 0.0101721884873346 -s 5 -d 4 -p rtProtoDV -e 6 -c 0 -i 7 -a 0 -x {5.1 4.1 -1 ------- null}
r -t 0.0171047302185826 -s 2 -d 1 -p rtProtoDV -e 6 -c 0 -i 2 -a 0 -x {2.1 1.1 -1 ------- null}
+ -t 0.0171047302185826 -s 1 -d 0 -p rtProtoDV -e 6 -c 0 -i 8 -a 0 -x {1.1 0.2 -1 ------- null}
- -t 0.0171047302185826 -s 1 -d 0 -p rtProtoDV -e 6 -c 0 -i 8 -a 0 -x {1.1 0.2 -1 ------- null}
h -t 0.0171047302185826 -s 1 -d 0 -p rtProtoDV -e 6 -c 0 -i 8 -a 0 -x {1.1 0.2 -1 ------- null}
+ -t 0.0171047302185826 -s 1 -d 2 -p rtProtoDV -e 6 -c 0 -i 9 -a 0 -x {1.1 2.1 -1 ------- null}
- -t 0.0171047302185826 -s 1 -d 2 -p rtProtoDV -e 6 -c 0 -i 9 -a 0 -x {1.1 2.1 -1 ------- null}
h -t 0.0171047302185826 -s 1 -d 2 -p rtProtoDV -e 6 -c 0 -i 9 -a 0 -x {1.1 2.1 -1 ------- null}
r -t 0.0171047302185826 -s 2 -d 3 -p rtProtoDV -e 6 -c 0 -i 3 -a 0 -x {2.1 3.2 -1 ------- null}
+ -t 0.0171047302185826 -s 3 -d 2 -p rtProtoDV -e 6 -c 0 -i 10 -a 0 -x {3.2 2.1 -1 ------- null}
- -t 0.0171047302185826 -s 3 -d 2 -p rtProtoDV -e 6 -c 0 -i 10 -a 0 -x {3.2 2.1 -1 ------- null}
h -t 0.0171047302185826 -s 3 -d 2 -p rtProtoDV -e 6 -c 0 -i 10 -a 0 -x {3.2 2.1 -1 ------- null}
+ -t 0.0171047302185826 -s 3 -d 4 -p rtProtoDV -e 6 -c 0 -i 11 -a 0 -x {3.2 4.1 -1 ------- null}
- -t 0.0171047302185826 -s 3 -d 4 -p rtProtoDV -e 6 -c 0 -i 11 -a 0 -x {3.2 4.1 -1 ------- null}
h -t 0.0171047302185826 -s 3 -d 4 -p rtProtoDV -e 6 -c 0 -i 11 -a 0 -x {3.2 4.1 -1 ------- null}
r -t 0.0201745884873346 -s 1 -d 0 -p rtProtoDV -e 6 -c 0 -i 4 -a 0 -x {1.1 0.2 -1 ------- null}
+ -t 0.0201745884873346 -s 0 -d 1 -p rtProtoDV -e 6 -c 0 -i 12 -a 0 -x {0.2 1.1 -1 ------- null}
- -t 0.0201745884873346 -s 0 -d 1 -p rtProtoDV -e 6 -c 0 -i 12 -a 0 -x {0.2 1.1 -1 ------- null}
h -t 0.0201745884873346 -s 0 -d 1 -p rtProtoDV -e 6 -c 0 -i 12 -a 0 -x {0.2 1.1 -1 ------- null}
+ -t 0.0201745884873346 -s 0 -d 5 -p rtProtoDV -e 6 -c 0 -i 13 -a 0 -x {0.2 5.1 -1 ------- null}
- -t 0.0201745884873346 -s 0 -d 5 -p rtProtoDV -e 6 -c 0 -i 13 -a 0 -x {0.2 5.1 -1 ------- null}
h -t 0.0201745884873346 -s 0 -d 5 -p rtProtoDV -e 6 -c 0 -i 13 -a 0 -x {0.2 5.1 -1 ------- null}
r -t 0.0201745884873346 -s 1 -d 2 -p rtProtoDV -e 6 -c 0 -i 5 -a 0 -x {1.1 2.1 -1 ------- null}
+ -t 0.0201745884873346 -s 2 -d 1 -p rtProtoDV -e 6 -c 0 -i 14 -a 0 -x {2.1 1.1 -1 ------- null}
- -t 0.0201745884873346 -s 2 -d 1 -p rtProtoDV -e 6 -c 0 -i 14 -a 0 -x {2.1 1.1 -1 ------- null}
h -t 0.0201745884873346 -s 2 -d 1 -p rtProtoDV -e 6 -c 0 -i 14 -a 0 -x {2.1 1.1 -1 ------- null}
+ -t 0.0201745884873346 -s 2 -d 3 -p rtProtoDV -e 6 -c 0 -i 15 -a 0 -x {2.1 3.2 -1 ------- null}
- -t 0.0201745884873346 -s 2 -d 3 -p rtProtoDV -e 6 -c 0 -i 15 -a 0 -x {2.1 3.2 -1 ------- null}
h -t 0.0201745884873346 -s 2 -d 3 -p rtProtoDV -e 6 -c 0 -i 15 -a 0 -x {2.1 3.2 -1 ------- null}
r -t 0.0201745884873346 -s 5 -d 0 -p rtProtoDV -e 6 -c 0 -i 6 -a 0 -x {5.1 0.2 -1 ------- null}
+ -t 0.0201745884873346 -s 0 -d 1 -p rtProtoDV -e 6 -c 0 -i 16 -a 0 -x {0.2 1.1 -1 ------- null}
+ -t 0.0201745884873346 -s 0 -d 5 -p rtProtoDV -e 6 -c 0 -i 17 -a 0 -x {0.2 5.1 -1 ------- null}
r -t 0.0201745884873346 -s 5 -d 4 -p rtProtoDV -e 6 -c 0 -i 7 -a 0 -x {5.1 4.1 -1 ------- null}
+ -t 0.0201745884873346 -s 4 -d 3 -p rtProtoDV -e 6 -c 0 -i 18 -a 0 -x {4.1 3.2 -1 ------- null}
- -t 0.0201745884873346 -s 4 -d 3 -p rtProtoDV -e 6 -c 0 -i 18 -a 0 -x {4.1 3.2 -1 ------- null}
h -t 0.0201745884873346 -s 4 -d 3 -p rtProtoDV -e 6 -c 0 -i 18 -a 0 -x {4.1 3.2 -1 ------- null}
+ -t 0.0201745884873346 -s 4 -d 5 -p rtProtoDV -e 6 -c 0 -i 19 -a 0 -x {4.1 5.1 -1 ------- null}
- -t 0.0201745884873346 -s 4 -d 5 -p rtProtoDV -e 6 -c 0 -i 19 -a 0 -x {4.1 5.1 -1 ------- null}
h -t 0.0201745884873346 -s 4 -d 5 -p rtProtoDV -e 6 -c 0 -i 19 -a 0 -x {4.1 5.1 -1 ------- null}
- -t 0.0201769884873346 -s 0 -d 1 -p rtProtoDV -e 6 -c 0 -i 16 -a 0 -x {0.2 1.1 -1 ------- null}
h -t 0.0201769884873346 -s 0 -d 1 -p rtProtoDV -e 6 -c 0 -i 16 -a 0 -x {0.2 1.1 -1 ------- null}
- -t 0.0201769884873346 -s 0 -d 5 -p rtProtoDV -e 6 -c 0 -i 17 -a 0 -x {0.2 5.1 -1 ------- null}
h -t 0.0201769884873346 -s 0 -d 5 -p rtProtoDV -e 6 -c 0 -i 17 -a 0 -x {0.2 5.1 -1 ------- null}
r -t 0.0271071302185826 -s 1 -d 0 -p rtProtoDV -e 6 -c 0 -i 8 -a 0 -x {1.1 0.2 -1 ------- null}
+ -t 0.0271071302185826 -s 0 -d 1 -p rtProtoDV -e 6 -c 0 -i 20 -a 0 -x {0.2 1.1 -1 ------- null}
- -t 0.0271071302185826 -s 0 -d 1 -p rtProtoDV -e 6 -c 0 -i 20 -a 0 -x {0.2 1.1 -1 ------- null}
h -t 0.0271071302185826 -s 0 -d 1 -p rtProtoDV -e 6 -c 0 -i 20 -a 0 -x {0.2 1.1 -1 ------- null}
+ -t 0.0271071302185826 -s 0 -d 5 -p rtProtoDV -e 6 -c 0 -i 21 -a 0 -x {0.2 5.1 -1 ------- null}
- -t 0.0271071302185826 -s 0 -d 5 -p rtProtoDV -e 6 -c 0 -i 21 -a 0 -x {0.2 5.1 -1 ------- null}
h -t 0.0271071302185826 -s 0 -d 5 -p rtProtoDV -e 6 -c 0 -i 21 -a 0 -x {0.2 5.1 -1 ------- null}
r -t 0.0271071302185826 -s 1 -d 2 -p rtProtoDV -e 6 -c 0 -i 9 -a 0 -x {1.1 2.1 -1 ------- null}
r -t 0.0271071302185826 -s 3 -d 2 -p rtProtoDV -e 6 -c 0 -i 10 -a 0 -x {3.2 2.1 -1 ------- null}
+ -t 0.0271071302185826 -s 2 -d 1 -p rtProtoDV -e 6 -c 0 -i 22 -a 0 -x {2.1 1.1 -1 ------- null}
- -t 0.0271071302185826 -s 2 -d 1 -p rtProtoDV -e 6 -c 0 -i 22 -a 0 -x {2.1 1.1 -1 ------- null}
h -t 0.0271071302185826 -s 2 -d 1 -p rtProtoDV -e 6 -c 0 -i 22 -a 0 -x {2.1 1.1 -1 ------- null}
+ -t 0.0271071302185826 -s 2 -d 3 -p rtProtoDV -e 6 -c 0 -i 23 -a 0 -x {2.1 3.2 -1 ------- null}
- -t 0.0271071302185826 -s 2 -d 3 -p rtProtoDV -e 6 -c 0 -i 23 -a 0 -x {2.1 3.2 -1 ------- null}
h -t 0.0271071302185826 -s 2 -d 3 -p rtProtoDV -e 6 -c 0 -i 23 -a 0 -x {2.1 3.2 -1 ------- null}
r -t 0.0271071302185826 -s 3 -d 4 -p rtProtoDV -e 6 -c 0 -i 11 -a 0 -x {3.2 4.1 -1 ------- null}
+ -t 0.0271071302185826 -s 4 -d 3 -p rtProtoDV -e 6 -c 0 -i 24 -a 0 -x {4.1 3.2 -1 ------- null}
- -t 0.0271071302185826 -s 4 -d 3 -p rtProtoDV -e 6 -c 0 -i 24 -a 0 -x {4.1 3.2 -1 ------- null}
h -t 0.0271071302185826 -s 4 -d 3 -p rtProtoDV -e 6 -c 0 -i 24 -a 0 -x {4.1 3.2 -1 ------- null}
+ -t 0.0271071302185826 -s 4 -d 5 -p rtProtoDV -e 6 -c 0 -i 25 -a 0 -x {4.1 5.1 -1 ------- null}
- -t 0.0271071302185826 -s 4 -d 5 -p rtProtoDV -e 6 -c 0 -i 25 -a 0 -x {4.1 5.1 -1 ------- null}
h -t 0.0271071302185826 -s 4 -d 5 -p rtProtoDV -e 6 -c 0 -i 25 -a 0 -x {4.1 5.1 -1 ------- null}
r -t 0.0301769884873346 -s 0 -d 1 -p rtProtoDV -e 6 -c 0 -i 12 -a 0 -x {0.2 1.1 -1 ------- null}
r -t 0.0301769884873346 -s 0 -d 5 -p rtProtoDV -e 6 -c 0 -i 13 -a 0 -x {0.2 5.1 -1 ------- null}
+ -t 0.0301769884873346 -s 5 -d 0 -p rtProtoDV -e 6 -c 0 -i 26 -a 0 -x {5.1 0.2 -1 ------- null}
- -t 0.0301769884873346 -s 5 -d 0 -p rtProtoDV -e 6 -c 0 -i 26 -a 0 -x {5.1 0.2 -1 ------- null}
h -t 0.0301769884873346 -s 5 -d 0 -p rtProtoDV -e 6 -c 0 -i 26 -a 0 -x {5.1 0.2 -1 ------- null}
+ -t 0.0301769884873346 -s 5 -d 4 -p rtProtoDV -e 6 -c 0 -i 27 -a 0 -x {5.1 4.1 -1 ------- null}
- -t 0.0301769884873346 -s 5 -d 4 -p rtProtoDV -e 6 -c 0 -i 27 -a 0 -x {5.1 4.1 -1 ------- null}
h -t 0.0301769884873346 -s 5 -d 4 -p rtProtoDV -e 6 -c 0 -i 27 -a 0 -x {5.1 4.1 -1 ------- null}
r -t 0.0301769884873346 -s 2 -d 1 -p rtProtoDV -e 6 -c 0 -i 14 -a 0 -x {2.1 1.1 -1 ------- null}
r -t 0.0301769884873346 -s 2 -d 3 -p rtProtoDV -e 6 -c 0 -i 15 -a 0 -x {2.1 3.2 -1 ------- null}
+ -t 0.0301769884873346 -s 3 -d 2 -p rtProtoDV -e 6 -c 0 -i 28 -a 0 -x {3.2 2.1 -1 ------- null}
- -t 0.0301769884873346 -s 3 -d 2 -p rtProtoDV -e 6 -c 0 -i 28 -a 0 -x {3.2 2.1 -1 ------- null}
h -t 0.0301769884873346 -s 3 -d 2 -p rtProtoDV -e 6 -c 0 -i 28 -a 0 -x {3.2 2.1 -1 ------- null}
+ -t 0.0301769884873346 -s 3 -d 4 -p rtProtoDV -e 6 -c 0 -i 29 -a 0 -x {3.2 4.1 -1 ------- null}
- -t 0.0301769884873346 -s 3 -d 4 -p rtProtoDV -e 6 -c 0 -i 29 -a 0 -x {3.2 4.1 -1 ------- null}
h -t 0.0301769884873346 -s 3 -d 4 -p rtProtoDV -e 6 -c 0 -i 29 -a 0 -x {3.2 4.1 -1 ------- null}
r -t 0.0301769884873346 -s 4 -d 3 -p rtProtoDV -e 6 -c 0 -i 18 -a 0 -x {4.1 3.2 -1 ------- null}
+ -t 0.0301769884873346 -s 3 -d 2 -p rtProtoDV -e 6 -c 0 -i 30 -a 0 -x {3.2 2.1 -1 ------- null}
+ -t 0.0301769884873346 -s 3 -d 4 -p rtProtoDV -e 6 -c 0 -i 31 -a 0 -x {3.2 4.1 -1 ------- null}
r -t 0.0301769884873346 -s 4 -d 5 -p rtProtoDV -e 6 -c 0 -i 19 -a 0 -x {4.1 5.1 -1 ------- null}
+ -t 0.0301769884873346 -s 5 -d 0 -p rtProtoDV -e 6 -c 0 -i 32 -a 0 -x {5.1 0.2 -1 ------- null}
+ -t 0.0301769884873346 -s 5 -d 4 -p rtProtoDV -e 6 -c 0 -i 33 -a 0 -x {5.1 4.1 -1 ------- null}
r -t 0.0301793884873346 -s 0 -d 1 -p rtProtoDV -e 6 -c 0 -i 16 -a 0 -x {0.2 1.1 -1 ------- null}
+ -t 0.0301793884873346 -s 1 -d 0 -p rtProtoDV -e 6 -c 0 -i 34 -a 0 -x {1.1 0.2 -1 ------- null}
- -t 0.0301793884873346 -s 1 -d 0 -p rtProtoDV -e 6 -c 0 -i 34 -a 0 -x {1.1 0.2 -1 ------- null}
h -t 0.0301793884873346 -s 1 -d 0 -p rtProtoDV -e 6 -c 0 -i 34 -a 0 -x {1.1 0.2 -1 ------- null}
+ -t 0.0301793884873346 -s 1 -d 2 -p rtProtoDV -e 6 -c 0 -i 35 -a 0 -x {1.1 2.1 -1 ------- null}
- -t 0.0301793884873346 -s 1 -d 2 -p rtProtoDV -e 6 -c 0 -i 35 -a 0 -x {1.1 2.1 -1 ------- null}
h -t 0.0301793884873346 -s 1 -d 2 -p rtProtoDV -e 6 -c 0 -i 35 -a 0 -x {1.1 2.1 -1 ------- null}
r -t 0.0301793884873346 -s 0 -d 5 -p rtProtoDV -e 6 -c 0 -i 17 -a 0 -x {0.2 5.1 -1 ------- null}
- -t 0.0301793884873346 -s 5 -d 0 -p rtProtoDV -e 6 -c 0 -i 32 -a 0 -x {5.1 0.2 -1 ------- null}
h -t 0.0301793884873346 -s 5 -d 0 -p rtProtoDV -e 6 -c 0 -i 32 -a 0 -x {5.1 0.2 -1 ------- null}
- -t 0.0301793884873346 -s 5 -d 4 -p rtProtoDV -e 6 -c 0 -i 33 -a 0 -x {5.1 4.1 -1 ------- null}
h -t 0.0301793884873346 -s 5 -d 4 -p rtProtoDV -e 6 -c 0 -i 33 -a 0 -x {5.1 4.1 -1 ------- null}
- -t 0.0301793884873346 -s 3 -d 2 -p rtProtoDV -e 6 -c 0 -i 30 -a 0 -x {3.2 2.1 -1 ------- null}
h -t 0.0301793884873346 -s 3 -d 2 -p rtProtoDV -e 6 -c 0 -i 30 -a 0 -x {3.2 2.1 -1 ------- null}
- -t 0.0301793884873346 -s 3 -d 4 -p rtProtoDV -e 6 -c 0 -i 31 -a 0 -x {3.2 4.1 -1 ------- null}
h -t 0.0301793884873346 -s 3 -d 4 -p rtProtoDV -e 6 -c 0 -i 31 -a 0 -x {3.2 4.1 -1 ------- null}
r -t 0.0371095302185826 -s 0 -d 1 -p rtProtoDV -e 6 -c 0 -i 20 -a 0 -x {0.2 1.1 -1 ------- null}
r -t 0.0371095302185826 -s 0 -d 5 -p rtProtoDV -e 6 -c 0 -i 21 -a 0 -x {0.2 5.1 -1 ------- null}
r -t 0.0371095302185826 -s 2 -d 1 -p rtProtoDV -e 6 -c 0 -i 22 -a 0 -x {2.1 1.1 -1 ------- null}
r -t 0.0371095302185826 -s 2 -d 3 -p rtProtoDV -e 6 -c 0 -i 23 -a 0 -x {2.1 3.2 -1 ------- null}
r -t 0.0371095302185826 -s 4 -d 3 -p rtProtoDV -e 6 -c 0 -i 24 -a 0 -x {4.1 3.2 -1 ------- null}
r -t 0.0371095302185826 -s 4 -d 5 -p rtProtoDV -e 6 -c 0 -i 25 -a 0 -x {4.1 5.1 -1 ------- null}
r -t 0.0401793884873346 -s 5 -d 0 -p rtProtoDV -e 6 -c 0 -i 26 -a 0 -x {5.1 0.2 -1 ------- null}
r -t 0.0401793884873346 -s 5 -d 4 -p rtProtoDV -e 6 -c 0 -i 27 -a 0 -x {5.1 4.1 -1 ------- null}
r -t 0.0401793884873346 -s 3 -d 2 -p rtProtoDV -e 6 -c 0 -i 28 -a 0 -x {3.2 2.1 -1 ------- null}
r -t 0.0401793884873346 -s 3 -d 4 -p rtProtoDV -e 6 -c 0 -i 29 -a 0 -x {3.2 4.1 -1 ------- null}
r -t 0.0401817884873346 -s 1 -d 0 -p rtProtoDV -e 6 -c 0 -i 34 -a 0 -x {1.1 0.2 -1 ------- null}
r -t 0.0401817884873346 -s 1 -d 2 -p rtProtoDV -e 6 -c 0 -i 35 -a 0 -x {1.1 2.1 -1 ------- null}
r -t 0.0401817884873346 -s 5 -d 0 -p rtProtoDV -e 6 -c 0 -i 32 -a 0 -x {5.1 0.2 -1 ------- null}
r -t 0.0401817884873346 -s 5 -d 4 -p rtProtoDV -e 6 -c 0 -i 33 -a 0 -x {5.1 4.1 -1 ------- null}
r -t 0.0401817884873346 -s 3 -d 2 -p rtProtoDV -e 6 -c 0 -i 30 -a 0 -x {3.2 2.1 -1 ------- null}
r -t 0.0401817884873346 -s 3 -d 4 -p rtProtoDV -e 6 -c 0 -i 31 -a 0 -x {3.2 4.1 -1 ------- null}
+ -t 0.04406133552271 -s 3 -d 2 -p rtProtoDV -e 6 -c 0 -i 36 -a 0 -x {3.2 2.1 -1 ------- null}
- -t 0.04406133552271 -s 3 -d 2 -p rtProtoDV -e 6 -c 0 -i 36 -a 0 -x {3.2 2.1 -1 ------- null}
h -t 0.04406133552271 -s 3 -d 2 -p rtProtoDV -e 6 -c 0 -i 36 -a 0 -x {3.2 2.1 -1 ------- null}
+ -t 0.04406133552271 -s 3 -d 4 -p rtProtoDV -e 6 -c 0 -i 37 -a 0 -x {3.2 4.1 -1 ------- null}
- -t 0.04406133552271 -s 3 -d 4 -p rtProtoDV -e 6 -c 0 -i 37 -a 0 -x {3.2 4.1 -1 ------- null}
h -t 0.04406133552271 -s 3 -d 4 -p rtProtoDV -e 6 -c 0 -i 37 -a 0 -x {3.2 4.1 -1 ------- null}
r -t 0.05406373552271 -s 3 -d 2 -p rtProtoDV -e 6 -c 0 -i 36 -a 0 -x {3.2 2.1 -1 ------- null}
r -t 0.05406373552271 -s 3 -d 4 -p rtProtoDV -e 6 -c 0 -i 37 -a 0 -x {3.2 4.1 -1 ------- null}
+ -t 0.1 -s 0 -d 1 -p cbr -e 1000 -c 0 -i 38 -a 0 -x {0.0 3.0 0 ------- null}
- -t 0.1 -s 0 -d 1 -p cbr -e 1000 -c 0 -i 38 -a 0 -x {0.0 3.0 0 ------- null}
h -t 0.1 -s 0 -d 1 -p cbr -e 1000 -c 0 -i 38 -a 0 -x {0.0 3.0 -1 ------- null}
r -t 0.1104 -s 0 -d 1 -p cbr -e 1000 -c 0 -i 38 -a 0 -x {0.0 3.0 0 ------- null}
+ -t 0.1104 -s 1 -d 2 -p cbr -e 1000 -c 0 -i 38 -a 0 -x {0.0 3.0 0 ------- null}
- -t 0.1104 -s 1 -d 2 -p cbr -e 1000 -c 0 -i 38 -a 0 -x {0.0 3.0 0 ------- null}
h -t 0.1104 -s 1 -d 2 -p cbr -e 1000 -c 0 -i 38 -a 0 -x {0.0 3.0 -1 ------- null}
+ -t 0.117857142857143 -s 0 -d 1 -p cbr -e 1000 -c 0 -i 39 -a 0 -x {0.0 3.0 1 ------- null}
- -t 0.117857142857143 -s 0 -d 1 -p cbr -e 1000 -c 0 -i 39 -a 0 -x {0.0 3.0 1 ------- null}
h -t 0.117857142857143 -s 0 -d 1 -p cbr -e 1000 -c 0 -i 39 -a 0 -x {0.0 3.0 -1 ------- null}
r -t 0.1208 -s 1 -d 2 -p cbr -e 1000 -c 0 -i 38 -a 0 -x {0.0 3.0 0 ------- null}
+ -t 0.1208 -s 2 -d 3 -p cbr -e 1000 -c 0 -i 38 -a 0 -x {0.0 3.0 0 ------- null}
- -t 0.1208 -s 2 -d 3 -p cbr -e 1000 -c 0 -i 38 -a 0 -x {0.0 3.0 0 ------- null}
h -t 0.1208 -s 2 -d 3 -p cbr -e 1000 -c 0 -i 38 -a 0 -x {0.0 3.0 -1 ------- null}
r -t 0.128257142857143 -s 0 -d 1 -p cbr -e 1000 -c 0 -i 39 -a 0 -x {0.0 3.0 1 ------- null}
+ -t 0.128257142857143 -s 1 -d 2 -p cbr -e 1000 -c 0 -i 39 -a 0 -x {0.0 3.0 1 ------- null}
- -t 0.128257142857143 -s 1 -d 2 -p cbr -e 1000 -c 0 -i 39 -a 0 -x {0.0 3.0 1 ------- null}
h -t 0.128257142857143 -s 1 -d 2 -p cbr -e 1000 -c 0 -i 39 -a 0 -x {0.0 3.0 -1 ------- null}
r -t 0.1312 -s 2 -d 3 -p cbr -e 1000 -c 0 -i 38 -a 0 -x {0.0 3.0 0 ------- null}
+ -t 0.135714285714286 -s 0 -d 1 -p cbr -e 1000 -c 0 -i 40 -a 0 -x {0.0 3.0 2 ------- null}
- -t 0.135714285714286 -s 0 -d 1 -p cbr -e 1000 -c 0 -i 40 -a 0 -x {0.0 3.0 2 ------- null}
h -t 0.135714285714286 -s 0 -d 1 -p cbr -e 1000 -c 0 -i 40 -a 0 -x {0.0 3.0 -1 ------- null}
r -t 0.138657142857143 -s 1 -d 2 -p cbr -e 1000 -c 0 -i 39 -a 0 -x {0.0 3.0 1 ------- null}
+ -t 0.138657142857143 -s 2 -d 3 -p cbr -e 1000 -c 0 -i 39 -a 0 -x {0.0 3.0 1 ------- null}
- -t 0.138657142857143 -s 2 -d 3 -p cbr -e 1000 -c 0 -i 39 -a 0 -x {0.0 3.0 1 ------- null}
h -t 0.138657142857143 -s 2 -d 3 -p cbr -e 1000 -c 0 -i 39 -a 0 -x {0.0 3.0 -1 ------- null}
r -t 0.146114285714286 -s 0 -d 1 -p cbr -e 1000 -c 0 -i 40 -a 0 -x {0.0 3.0 2 ------- null}
+ -t 0.146114285714286 -s 1 -d 2 -p cbr -e 1000 -c 0 -i 40 -a 0 -x {0.0 3.0 2 ------- null}
- -t 0.146114285714286 -s 1 -d 2 -p cbr -e 1000 -c 0 -i 40 -a 0 -x {0.0 3.0 2 ------- null}
h -t 0.146114285714286 -s 1 -d 2 -p cbr -e 1000 -c 0 -i 40 -a 0 -x {0.0 3.0 -1 ------- null}
r -t 0.149057142857143 -s 2 -d 3 -p cbr -e 1000 -c 0 -i 39 -a 0 -x {0.0 3.0 1 ------- null}
+ -t 0.153571428571429 -s 0 -d 1 -p cbr -e 1000 -c 0 -i 41 -a 0 -x {0.0 3.0 3 ------- null}
- -t 0.153571428571429 -s 0 -d 1 -p cbr -e 1000 -c 0 -i 41 -a 0 -x {0.0 3.0 3 ------- null}
h -t 0.153571428571429 -s 0 -d 1 -p cbr -e 1000 -c 0 -i 41 -a 0 -x {0.0 3.0 -1 ------- null}
r -t 0.156514285714286 -s 1 -d 2 -p cbr -e 1000 -c 0 -i 40 -a 0 -x {0.0 3.0 2 ------- null}
+ -t 0.156514285714286 -s 2 -d 3 -p cbr -e 1000 -c 0 -i 40 -a 0 -x {0.0 3.0 2 ------- null}
- -t 0.156514285714286 -s 2 -d 3 -p cbr -e 1000 -c 0 -i 40 -a 0 -x {0.0 3.0 2 ------- null}
h -t 0.156514285714286 -s 2 -d 3 -p cbr -e 1000 -c 0 -i 40 -a 0 -x {0.0 3.0 -1 ------- null}
r -t 0.163971428571429 -s 0 -d 1 -p cbr -e 1000 -c 0 -i 41 -a 0 -x {0.0 3.0 3 ------- null}
+ -t 0.163971428571429 -s 1 -d 2 -p cbr -e 1000 -c 0 -i 41 -a 0 -x {0.0 3.0 3 ------- null}
- -t 0.163971428571429 -s 1 -d 2 -p cbr -e 1000 -c 0 -i 41 -a 0 -x {0.0 3.0 3 ------- null}
h -t 0.163971428571429 -s 1 -d 2 -p cbr -e 1000 -c 0 -i 41 -a 0 -x {0.0 3.0 -1 ------- null}
r -t 0.166914285714286 -s 2 -d 3 -p cbr -e 1000 -c 0 -i 40 -a 0 -x {0.0 3.0 2 ------- null}
+ -t 0.171428571428571 -s 0 -d 1 -p cbr -e 1000 -c 0 -i 42 -a 0 -x {0.0 3.0 4 ------- null}
- -t 0.171428571428571 -s 0 -d 1 -p cbr -e 1000 -c 0 -i 42 -a 0 -x {0.0 3.0 4 ------- null}
h -t 0.171428571428571 -s 0 -d 1 -p cbr -e 1000 -c 0 -i 42 -a 0 -x {0.0 3.0 -1 ------- null}
r -t 0.174371428571429 -s 1 -d 2 -p cbr -e 1000 -c 0 -i 41 -a 0 -x {0.0 3.0 3 ------- null}
+ -t 0.174371428571429 -s 2 -d 3 -p cbr -e 1000 -c 0 -i 41 -a 0 -x {0.0 3.0 3 ------- null}
- -t 0.174371428571429 -s 2 -d 3 -p cbr -e 1000 -c 0 -i 41 -a 0 -x {0.0 3.0 3 ------- null}
h -t 0.174371428571429 -s 2 -d 3 -p cbr -e 1000 -c 0 -i 41 -a 0 -x {0.0 3.0 -1 ------- null}
r -t 0.181828571428571 -s 0 -d 1 -p cbr -e 1000 -c 0 -i 42 -a 0 -x {0.0 3.0 4 ------- null}
+ -t 0.181828571428571 -s 1 -d 2 -p cbr -e 1000 -c 0 -i 42 -a 0 -x {0.0 3.0 4 ------- null}
- -t 0.181828571428571 -s 1 -d 2 -p cbr -e 1000 -c 0 -i 42 -a 0 -x {0.0 3.0 4 ------- null}
h -t 0.181828571428571 -s 1 -d 2 -p cbr -e 1000 -c 0 -i 42 -a 0 -x {0.0 3.0 -1 ------- null}
r -t 0.184771428571429 -s 2 -d 3 -p cbr -e 1000 -c 0 -i 41 -a 0 -x {0.0 3.0 3 ------- null}
+ -t 0.189285714285714 -s 0 -d 1 -p cbr -e 1000 -c 0 -i 43 -a 0 -x {0.0 3.0 5 ------- null}
- -t 0.189285714285714 -s 0 -d 1 -p cbr -e 1000 -c 0 -i 43 -a 0 -x {0.0 3.0 5 ------- null}
h -t 0.189285714285714 -s 0 -d 1 -p cbr -e 1000 -c 0 -i 43 -a 0 -x {0.0 3.0 -1 ------- null}
r -t 0.192228571428571 -s 1 -d 2 -p cbr -e 1000 -c 0 -i 42 -a 0 -x {0.0 3.0 4 ------- null}
+ -t 0.192228571428571 -s 2 -d 3 -p cbr -e 1000 -c 0 -i 42 -a 0 -x {0.0 3.0 4 ------- null}
- -t 0.192228571428571 -s 2 -d 3 -p cbr -e 1000 -c 0 -i 42 -a 0 -x {0.0 3.0 4 ------- null}
h -t 0.192228571428571 -s 2 -d 3 -p cbr -e 1000 -c 0 -i 42 -a 0 -x {0.0 3.0 -1 ------- null}
r -t 0.199685714285714 -s 0 -d 1 -p cbr -e 1000 -c 0 -i 43 -a 0 -x {0.0 3.0 5 ------- null}
+ -t 0.199685714285714 -s 1 -d 2 -p cbr -e 1000 -c 0 -i 43 -a 0 -x {0.0 3.0 5 ------- null}
- -t 0.199685714285714 -s 1 -d 2 -p cbr -e 1000 -c 0 -i 43 -a 0 -x {0.0 3.0 5 ------- null}
h -t 0.199685714285714 -s 1 -d 2 -p cbr -e 1000 -c 0 -i 43 -a 0 -x {0.0 3.0 -1 ------- null}
r -t 0.202628571428571 -s 2 -d 3 -p cbr -e 1000 -c 0 -i 42 -a 0 -x {0.0 3.0 4 ------- null}
+ -t 0.207142857142857 -s 0 -d 1 -p cbr -e 1000 -c 0 -i 44 -a 0 -x {0.0 3.0 6 ------- null}
- -t 0.207142857142857 -s 0 -d 1 -p cbr -e 1000 -c 0 -i 44 -a 0 -x {0.0 3.0 6 ------- null}
h -t 0.207142857142857 -s 0 -d 1 -p cbr -e 1000 -c 0 -i 44 -a 0 -x {0.0 3.0 -1 ------- null}
r -t 0.210085714285714 -s 1 -d 2 -p cbr -e 1000 -c 0 -i 43 -a 0 -x {0.0 3.0 5 ------- null}
+ -t 0.210085714285714 -s 2 -d 3 -p cbr -e 1000 -c 0 -i 43 -a 0 -x {0.0 3.0 5 ------- null}
- -t 0.210085714285714 -s 2 -d 3 -p cbr -e 1000 -c 0 -i 43 -a 0 -x {0.0 3.0 5 ------- null}
h -t 0.210085714285714 -s 2 -d 3 -p cbr -e 1000 -c 0 -i 43 -a 0 -x {0.0 3.0 -1 ------- null}
r -t 0.217542857142857 -s 0 -d 1 -p cbr -e 1000 -c 0 -i 44 -a 0 -x {0.0 3.0 6 ------- null}
+ -t 0.217542857142857 -s 1 -d 2 -p cbr -e 1000 -c 0 -i 44 -a 0 -x {0.0 3.0 6 ------- null}
- -t 0.217542857142857 -s 1 -d 2 -p cbr -e 1000 -c 0 -i 44 -a 0 -x {0.0 3.0 6 ------- null}
h -t 0.217542857142857 -s 1 -d 2 -p cbr -e 1000 -c 0 -i 44 -a 0 -x {0.0 3.0 -1 ------- null}
r -t 0.220485714285714 -s 2 -d 3 -p cbr -e 1000 -c 0 -i 43 -a 0 -x {0.0 3.0 5 ------- null}
+ -t 0.22058669092161 -s 4 -d 3 -p rtProtoDV -e 6 -c 0 -i 45 -a 0 -x {4.1 3.2 -1 ------- null}
- -t 0.22058669092161 -s 4 -d 3 -p rtProtoDV -e 6 -c 0 -i 45 -a 0 -x {4.1 3.2 -1 ------- null}
h -t 0.22058669092161 -s 4 -d 3 -p rtProtoDV -e 6 -c 0 -i 45 -a 0 -x {4.1 3.2 -1 ------- null}
+ -t 0.22058669092161 -s 4 -d 5 -p rtProtoDV -e 6 -c 0 -i 46 -a 0 -x {4.1 5.1 -1 ------- null}
- -t 0.22058669092161 -s 4 -d 5 -p rtProtoDV -e 6 -c 0 -i 46 -a 0 -x {4.1 5.1 -1 ------- null}
h -t 0.22058669092161 -s 4 -d 5 -p rtProtoDV -e 6 -c 0 -i 46 -a 0 -x {4.1 5.1 -1 ------- null}
+ -t 0.225 -s 0 -d 1 -p cbr -e 1000 -c 0 -i 47 -a 0 -x {0.0 3.0 7 ------- null}
- -t 0.225 -s 0 -d 1 -p cbr -e 1000 -c 0 -i 47 -a 0 -x {0.0 3.0 7 ------- null}
h -t 0.225 -s 0 -d 1 -p cbr -e 1000 -c 0 -i 47 -a 0 -x {0.0 3.0 -1 ------- null}
r -t 0.227942857142857 -s 1 -d 2 -p cbr -e 1000 -c 0 -i 44 -a 0 -x {0.0 3.0 6 ------- null}
+ -t 0.227942857142857 -s 2 -d 3 -p cbr -e 1000 -c 0 -i 44 -a 0 -x {0.0 3.0 6 ------- null}
- -t 0.227942857142857 -s 2 -d 3 -p cbr -e 1000 -c 0 -i 44 -a 0 -x {0.0 3.0 6 ------- null}
h -t 0.227942857142857 -s 2 -d 3 -p cbr -e 1000 -c 0 -i 44 -a 0 -x {0.0 3.0 -1 ------- null}
r -t 0.23058909092161 -s 4 -d 3 -p rtProtoDV -e 6 -c 0 -i 45 -a 0 -x {4.1 3.2 -1 ------- null}
r -t 0.23058909092161 -s 4 -d 5 -p rtProtoDV -e 6 -c 0 -i 46 -a 0 -x {4.1 5.1 -1 ------- null}
r -t 0.2354 -s 0 -d 1 -p cbr -e 1000 -c 0 -i 47 -a 0 -x {0.0 3.0 7 ------- null}
+ -t 0.2354 -s 1 -d 2 -p cbr -e 1000 -c 0 -i 47 -a 0 -x {0.0 3.0 7 ------- null}
- -t 0.2354 -s 1 -d 2 -p cbr -e 1000 -c 0 -i 47 -a 0 -x {0.0 3.0 7 ------- null}
h -t 0.2354 -s 1 -d 2 -p cbr -e 1000 -c 0 -i 47 -a 0 -x {0.0 3.0 -1 ------- null}
r -t 0.238342857142857 -s 2 -d 3 -p cbr -e 1000 -c 0 -i 44 -a 0 -x {0.0 3.0 6 ------- null}
+ -t 0.242857142857143 -s 0 -d 1 -p cbr -e 1000 -c 0 -i 48 -a 0 -x {0.0 3.0 8 ------- null}
- -t 0.242857142857143 -s 0 -d 1 -p cbr -e 1000 -c 0 -i 48 -a 0 -x {0.0 3.0 8 ------- null}
h -t 0.242857142857143 -s 0 -d 1 -p cbr -e 1000 -c 0 -i 48 -a 0 -x {0.0 3.0 -1 ------- null}
r -t 0.2458 -s 1 -d 2 -p cbr -e 1000 -c 0 -i 47 -a 0 -x {0.0 3.0 7 ------- null}
+ -t 0.2458 -s 2 -d 3 -p cbr -e 1000 -c 0 -i 47 -a 0 -x {0.0 3.0 7 ------- null}
- -t 0.2458 -s 2 -d 3 -p cbr -e 1000 -c 0 -i 47 -a 0 -x {0.0 3.0 7 ------- null}
h -t 0.2458 -s 2 -d 3 -p cbr -e 1000 -c 0 -i 47 -a 0 -x {0.0 3.0 -1 ------- null}
r -t 0.253257142857143 -s 0 -d 1 -p cbr -e 1000 -c 0 -i 48 -a 0 -x {0.0 3.0 8 ------- null}
+ -t 0.253257142857143 -s 1 -d 2 -p cbr -e 1000 -c 0 -i 48 -a 0 -x {0.0 3.0 8 ------- null}
- -t 0.253257142857143 -s 1 -d 2 -p cbr -e 1000 -c 0 -i 48 -a 0 -x {0.0 3.0 8 ------- null}
h -t 0.253257142857143 -s 1 -d 2 -p cbr -e 1000 -c 0 -i 48 -a 0 -x {0.0 3.0 -1 ------- null}
r -t 0.2562 -s 2 -d 3 -p cbr -e 1000 -c 0 -i 47 -a 0 -x {0.0 3.0 7 ------- null}
+ -t 0.260714285714286 -s 0 -d 1 -p cbr -e 1000 -c 0 -i 49 -a 0 -x {0.0 3.0 9 ------- null}
- -t 0.260714285714286 -s 0 -d 1 -p cbr -e 1000 -c 0 -i 49 -a 0 -x {0.0 3.0 9 ------- null}
h -t 0.260714285714286 -s 0 -d 1 -p cbr -e 1000 -c 0 -i 49 -a 0 -x {0.0 3.0 -1 ------- null}
r -t 0.263657142857143 -s 1 -d 2 -p cbr -e 1000 -c 0 -i 48 -a 0 -x {0.0 3.0 8 ------- null}
+ -t 0.263657142857143 -s 2 -d 3 -p cbr -e 1000 -c 0 -i 48 -a 0 -x {0.0 3.0 8 ------- null}
- -t 0.263657142857143 -s 2 -d 3 -p cbr -e 1000 -c 0 -i 48 -a 0 -x {0.0 3.0 8 ------- null}
h -t 0.263657142857143 -s 2 -d 3 -p cbr -e 1000 -c 0 -i 48 -a 0 -x {0.0 3.0 -1 ------- null}
r -t 0.271114285714286 -s 0 -d 1 -p cbr -e 1000 -c 0 -i 49 -a 0 -x {0.0 3.0 9 ------- null}
+ -t 0.271114285714286 -s 1 -d 2 -p cbr -e 1000 -c 0 -i 49 -a 0 -x {0.0 3.0 9 ------- null}
- -t 0.271114285714286 -s 1 -d 2 -p cbr -e 1000 -c 0 -i 49 -a 0 -x {0.0 3.0 9 ------- null}
h -t 0.271114285714286 -s 1 -d 2 -p cbr -e 1000 -c 0 -i 49 -a 0 -x {0.0 3.0 -1 ------- null}
r -t 0.274057142857143 -s 2 -d 3 -p cbr -e 1000 -c 0 -i 48 -a 0 -x {0.0 3.0 8 ------- null}
+ -t 0.277940357931862 -s 1 -d 0 -p rtProtoDV -e 6 -c 0 -i 50 -a 0 -x {1.1 0.2 -1 ------- null}
- -t 0.277940357931862 -s 1 -d 0 -p rtProtoDV -e 6 -c 0 -i 50 -a 0 -x {1.1 0.2 -1 ------- null}
h -t 0.277940357931862 -s 1 -d 0 -p rtProtoDV -e 6 -c 0 -i 50 -a 0 -x {1.1 0.2 -1 ------- null}
+ -t 0.277940357931862 -s 1 -d 2 -p rtProtoDV -e 6 -c 0 -i 51 -a 0 -x {1.1 2.1 -1 ------- null}
- -t 0.277940357931862 -s 1 -d 2 -p rtProtoDV -e 6 -c 0 -i 51 -a 0 -x {1.1 2.1 -1 ------- null}
h -t 0.277940357931862 -s 1 -d 2 -p rtProtoDV -e 6 -c 0 -i 51 -a 0 -x {1.1 2.1 -1 ------- null}
+ -t 0.278571428571429 -s 0 -d 1 -p cbr -e 1000 -c 0 -i 52 -a 0 -x {0.0 3.0 10 ------- null}
- -t 0.278571428571429 -s 0 -d 1 -p cbr -e 1000 -c 0 -i 52 -a 0 -x {0.0 3.0 10 ------- null}
h -t 0.278571428571429 -s 0 -d 1 -p cbr -e 1000 -c 0 -i 52 -a 0 -x {0.0 3.0 -1 ------- null}
r -t 0.281514285714286 -s 1 -d 2 -p cbr -e 1000 -c 0 -i 49 -a 0 -x {0.0 3.0 9 ------- null}
+ -t 0.281514285714286 -s 2 -d 3 -p cbr -e 1000 -c 0 -i 49 -a 0 -x {0.0 3.0 9 ------- null}
- -t 0.281514285714286 -s 2 -d 3 -p cbr -e 1000 -c 0 -i 49 -a 0 -x {0.0 3.0 9 ------- null}
h -t 0.281514285714286 -s 2 -d 3 -p cbr -e 1000 -c 0 -i 49 -a 0 -x {0.0 3.0 -1 ------- null}
r -t 0.287942757931862 -s 1 -d 0 -p rtProtoDV -e 6 -c 0 -i 50 -a 0 -x {1.1 0.2 -1 ------- null}
r -t 0.287942757931862 -s 1 -d 2 -p rtProtoDV -e 6 -c 0 -i 51 -a 0 -x {1.1 2.1 -1 ------- null}
r -t 0.288971428571429 -s 0 -d 1 -p cbr -e 1000 -c 0 -i 52 -a 0 -x {0.0 3.0 10 ------- null}
+ -t 0.288971428571429 -s 1 -d 2 -p cbr -e 1000 -c 0 -i 52 -a 0 -x {0.0 3.0 10 ------- null}
- -t 0.288971428571429 -s 1 -d 2 -p cbr -e 1000 -c 0 -i 52 -a 0 -x {0.0 3.0 10 ------- null}
h -t 0.288971428571429 -s 1 -d 2 -p cbr -e 1000 -c 0 -i 52 -a 0 -x {0.0 3.0 -1 ------- null}
r -t 0.291914285714286 -s 2 -d 3 -p cbr -e 1000 -c 0 -i 49 -a 0 -x {0.0 3.0 9 ------- null}
+ -t 0.296428571428571 -s 0 -d 1 -p cbr -e 1000 -c 0 -i 53 -a 0 -x {0.0 3.0 11 ------- null}
- -t 0.296428571428571 -s 0 -d 1 -p cbr -e 1000 -c 0 -i 53 -a 0 -x {0.0 3.0 11 ------- null}
h -t 0.296428571428571 -s 0 -d 1 -p cbr -e 1000 -c 0 -i 53 -a 0 -x {0.0 3.0 -1 ------- null}
r -t 0.299371428571429 -s 1 -d 2 -p cbr -e 1000 -c 0 -i 52 -a 0 -x {0.0 3.0 10 ------- null}
+ -t 0.299371428571429 -s 2 -d 3 -p cbr -e 1000 -c 0 -i 52 -a 0 -x {0.0 3.0 10 ------- null}
- -t 0.299371428571429 -s 2 -d 3 -p cbr -e 1000 -c 0 -i 52 -a 0 -x {0.0 3.0 10 ------- null}
h -t 0.299371428571429 -s 2 -d 3 -p cbr -e 1000 -c 0 -i 52 -a 0 -x {0.0 3.0 -1 ------- null}
r -t 0.306828571428571 -s 0 -d 1 -p cbr -e 1000 -c 0 -i 53 -a 0 -x {0.0 3.0 11 ------- null}
+ -t 0.306828571428571 -s 1 -d 2 -p cbr -e 1000 -c 0 -i 53 -a 0 -x {0.0 3.0 11 ------- null}
- -t 0.306828571428571 -s 1 -d 2 -p cbr -e 1000 -c 0 -i 53 -a 0 -x {0.0 3.0 11 ------- null}
h -t 0.306828571428571 -s 1 -d 2 -p cbr -e 1000 -c 0 -i 53 -a 0 -x {0.0 3.0 -1 ------- null}
r -t 0.309771428571429 -s 2 -d 3 -p cbr -e 1000 -c 0 -i 52 -a 0 -x {0.0 3.0 10 ------- null}
+ -t 0.314285714285714 -s 0 -d 1 -p cbr -e 1000 -c 0 -i 54 -a 0 -x {0.0 3.0 12 ------- null}
- -t 0.314285714285714 -s 0 -d 1 -p cbr -e 1000 -c 0 -i 54 -a 0 -x {0.0 3.0 12 ------- null}
h -t 0.314285714285714 -s 0 -d 1 -p cbr -e 1000 -c 0 -i 54 -a 0 -x {0.0 3.0 -1 ------- null}
r -t 0.317228571428571 -s 1 -d 2 -p cbr -e 1000 -c 0 -i 53 -a 0 -x {0.0 3.0 11 ------- null}
+ -t 0.317228571428571 -s 2 -d 3 -p cbr -e 1000 -c 0 -i 53 -a 0 -x {0.0 3.0 11 ------- null}